500
Atoms. Timestep: 0
1 0 0 0
1 0.839798 0.839798 0
1 0.839798 0 0.839798
1 0 0.839798 0.839798
1 1.6796 0 0
1 2.51939 0.839798 0
1 2.51939 0 0.839798
1 1.6796 0.839798 0.839798
1 3.35919 0 0
1 4.19899 0.839798 0
1 4.19899 0 0.839798
1 3.35919 0.839798 0.839798
1 5.03879 0 0
1 5.87859 0.839798 0
1 5.87859 0 0.839798
1 5.03879 0.839798 0.839798
1 6.71838 0 0
1 7.55818 0.839798 0
1 7.55818 0 0.839798
1 6.71838 0.839798 0.839798
1 0 1.6796 0
1 0.839798 2.51939 0
1 0.839798 1.6796 0.839798
1 0 2.51939 0.839798
1 1.6796 1.6796 0
1 2.51939 2.51939 0
1 2.51939 1.6796 0.839798
1 1.6796 2.51939 0.839798
1 3.35919 1.6796 0
1 4.19899 2.51939 0
1 4.19899 1.6796 0.839798
1 3.35919 2.51939 0.839798
1 5.03879 1.6796 0
1 5.87859 2.51939 0
1 5.87859 1.6796 0.839798
1 5.03879 2.51939 0.839798
1 6.71838 1.6796 0
1 7.55818 2.51939 0
1 7.55818 1.6796 0.839798
1 6.71838 2.51939 0.839798
1 0 3.35919 0
1 0.839798 4.19899 0
1 0.839798 3.35919 0.839798
1 0 4.19899 0.839798
1 1.6796 3.35919 0
1 2.51939 4.19899 0
1 2.51939 3.35919 0.839798
1 1.6796 4.19899 0.839798
1 3.35919 3.35919 0
1 4.19899 4.19899 0
1 4.19899 3.35919 0.839798
1 3.35919 4.19899 0.839798
1 5.03879 3.35919 0
1 5.87859 4.19899 0
1 5.87859 3.35919 0.839798
1 5.03879 4.19899 0.839798
1 6.71838 3.35919 0
1 7.55818 4.19899 0
1 7.55818 3.35919 0.839798
1 6.71838 4.19899 0.839798
1 0 5.03879 0
1 0.839798 5.87859 0
1 0.839798 5.03879 0.839798
1 0 5.87859 0.839798
1 1.6796 5.03879 0
1 2.51939 5.87859 0
1 2.51939 5.03879 0.839798
1 1.6796 5.87859 0.839798
1 3.35919 5.03879 0
1 4.19899 5.87859 0
1 4.19899 5.03879 0.839798
1 3.35919 5.87859 0.839798
1 5.03879 5.03879 0
1 5.87859 5.87859 0
1 5.87859 5.03879 0.839798
1 5.03879 5.87859 0.839798
1 6.71838 5.03879 0
1 7.55818 5.87859 0
1 7.55818 5.03879 0.839798
1 6.71838 5.87859 0.839798
1 0 6.71838 0
1 0.839798 7.55818 0
1 0.839798 6.71838 0.839798
1 0 7.55818 0.839798
1 1.6796 6.71838 0
1 2.51939 7.55818 0
1 2.51939 6.71838 0.839798
1 1.6796 7.55818 0.839798
1 3.35919 6.71838 0
1 4.19899 7.55818 0
1 4.19899 6.71838 0.839798
1 3.35919 7.55818 0.839798
1 5.03879 6.71838 0
1 5.87859 7.55818 0
1 5.87859 6.71838 0.839798
1 5.03879 7.55818 0.839798
1 6.71838 6.71838 0
1 7.55818 7.55818 0
1 7.55818 6.71838 0.839798
1 6.71838 7.55818 0.839798
1 0 0 1.6796
1 0.839798 0.839798 1.6796
1 0.839798 0 2.51939
1 0 0.839798 2.51939
1 1.6796 0 1.6796
1 2.51939 0.839798 1.6796
1 2.51939 0 2.51939
1 1.6796 0.839798 2.51939
1 3.35919 0 1.6796
1 4.19899 0.839798 1.6796
1 4.19899 0 2.51939
1 3.35919 0.839798 2.51939
1 5.03879 0 1.6796
1 5.87859 0.839798 1.6796
1 5.87859 0 2.51939
1 5.03879 0.839798 2.51939
1 6.71838 0 1.6796
1 7.55818 0.839798 1.6796
1 7.55818 0 2.51939
1 6.71838 0.839798 2.51939
1 0 1.6796 1.6796
1 0.839798 2.51939 1.6796
1 0.839798 1.6796 2.51939
1 0 2.51939 2.51939
1 1.6796 1.6796 1.6796
1 2.51939 2.51939 1.6796
1 2.51939 1.6796 2.51939
1 1.6796 2.51939 2.51939
1 3.35919 1.6796 1.6796
1 4.19899 2.51939 1.6796
1 4.19899 1.6796 2.51939
1 3.35919 2.51939 2.51939
1 5.03879 1.6796 1.6796
1 5.87859 2.51939 1.6796
1 5.87859 1.6796 2.51939
1 5.03879 2.51939 2.51939
1 6.71838 1.6796 1.6796
1 7.55818 2.51939 1.6796
1 7.55818 1.6796 2.51939
1 6.71838 2.51939 2.51939
1 0 3.35919 1.6796
1 0.839798 4.19899 1.6796
1 0.839798 3.35919 2.51939
1 0 4.19899 2.51939
1 1.6796 3.35919 1.6796
1 2.51939 4.19899 1.6796
1 2.51939 3.35919 2.51939
1 1.6796 4.19899 2.51939
1 3.35919 3.35919 1.6796
1 4.19899 4.19899 1.6796
1 4.19899 3.35919 2.51939
1 3.35919 4.19899 2.51939
1 5.03879 3.35919 1.6796
1 5.87859 4.19899 1.6796
1 5.87859 3.35919 2.51939
1 5.03879 4.19899 2.51939
1 6.71838 3.35919 1.6796
1 7.55818 4.19899 1.6796
1 7.55818 3.35919 2.51939
1 6.71838 4.19899 2.51939
1 0 5.03879 1.6796
1 0.839798 5.87859 1.6796
1 0.839798 5.03879 2.51939
1 0 5.87859 2.51939
1 1.6796 5.03879 1.6796
1 2.51939 5.87859 1.6796
1 2.51939 5.03879 2.51939
1 1.6796 5.87859 2.51939
1 3.35919 5.03879 1.6796
1 4.19899 5.87859 1.6796
1 4.19899 5.03879 2.51939
1 3.35919 5.87859 2.51939
1 5.03879 5.03879 1.6796
1 5.87859 5.87859 1.6796
1 5.87859 5.03879 2.51939
1 5.03879 5.87859 2.51939
1 6.71838 5.03879 1.6796
1 7.55818 5.87859 1.6796
1 7.55818 5.03879 2.51939
1 6.71838 5.87859 2.51939
1 0 6.71838 1.6796
1 0.839798 7.55818 1.6796
1 0.839798 6.71838 2.51939
1 0 7.55818 2.51939
1 1.6796 6.71838 1.6796
1 2.51939 7.55818 1.6796
1 2.51939 6.71838 2.51939
1 1.6796 7.55818 2.51939
1 3.35919 6.71838 1.6796
1 4.19899 7.55818 1.6796
1 4.19899 6.71838 2.51939
1 3.35919 7.55818 2.51939
1 5.03879 6.71838 1.6796
1 5.87859 7.55818 1.6796
1 5.87859 6.71838 2.51939
1 5.03879 7.55818 2.51939
1 6.71838 6.71838 1.6796
1 7.55818 7.55818 1.6796
1 7.55818 6.71838 2.51939
1 6.71838 7.55818 2.51939
1 0 0 3.35919
1 0.839798 0.839798 3.35919
1 0.839798 0 4.19899
1 0 0.839798 4.19899
1 1.6796 0 3.35919
1 2.51939 0.839798 3.35919
1 2.51939 0 4.19899
1 1.6796 0.839798 4.19899
1 3.35919 0 3.35919
1 4.19899 0.839798 3.35919
1 4.19899 0 4.19899
1 3.35919 0.839798 4.19899
1 5.03879 0 3.35919
1 5.87859 0.839798 3.35919
1 5.87859 0 4.19899
1 5.03879 0.839798 4.19899
1 6.71838 0 3.35919
1 7.55818 0.839798 3.35919
1 7.55818 0 4.19899
1 6.71838 0.839798 4.19899
1 0 1.6796 3.35919
1 0.839798 2.51939 3.35919
1 0.839798 1.6796 4.19899
1 0 2.51939 4.19899
1 1.6796 1.6796 3.35919
1 2.51939 2.51939 3.35919
1 2.51939 1.6796 4.19899
1 1.6796 2.51939 4.19899
1 3.35919 1.6796 3.35919
1 4.19899 2.51939 3.35919
1 4.19899 1.6796 4.19899
1 3.35919 2.51939 4.19899
1 5.03879 1.6796 3.35919
1 5.87859 2.51939 3.35919
1 5.87859 1.6796 4.19899
1 5.03879 2.51939 4.19899
1 6.71838 1.6796 3.35919
1 7.55818 2.51939 3.35919
1 7.55818 1.6796 4.19899
1 6.71838 2.51939 4.19899
1 0 3.35919 3.35919
1 0.839798 4.19899 3.35919
1 0.839798 3.35919 4.19899
1 0 4.19899 4.19899
1 1.6796 3.35919 3.35919
1 2.51939 4.19899 3.35919
1 2.51939 3.35919 4.19899
1 1.6796 4.19899 4.19899
1 3.35919 3.35919 3.35919
1 4.19899 4.19899 3.35919
1 4.19899 3.35919 4.19899
1 3.35919 4.19899 4.19899
1 5.03879 3.35919 3.35919
1 5.87859 4.19899 3.35919
1 5.87859 3.35919 4.19899
1 5.03879 4.19899 4.19899
1 6.71838 3.35919 3.35919
1 7.55818 4.19899 3.35919
1 7.55818 3.35919 4.19899
1 6.71838 4.19899 4.19899
1 0 5.03879 3.35919
1 0.839798 5.87859 3.35919
1 0.839798 5.03879 4.19899
1 0 5.87859 4.19899
1 1.6796 5.03879 3.35919
1 2.51939 5.87859 3.35919
1 2.51939 5.03879 4.19899
1 1.6796 5.87859 4.19899
1 3.35919 5.03879 3.35919
1 4.19899 5.87859 3.35919
1 4.19899 5.03879 4.19899
1 3.35919 5.87859 4.19899
1 5.03879 5.03879 3.35919
1 5.87859 5.87859 3.35919
1 5.87859 5.03879 4.19899
1 5.03879 5.87859 4.19899
1 6.71838 5.03879 3.35919
1 7.55818 5.87859 3.35919
1 7.55818 5.03879 4.19899
1 6.71838 5.87859 4.19899
1 0 6.71838 3.35919
1 0.839798 7.55818 3.35919
1 0.839798 6.71838 4.19899
1 0 7.55818 4.19899
1 1.6796 6.71838 3.35919
1 2.51939 7.55818 3.35919
1 2.51939 6.71838 4.19899
1 1.6796 7.55818 4.19899
1 3.35919 6.71838 3.35919
1 4.19899 7.55818 3.35919
1 4.19899 6.71838 4.19899
1 3.35919 7.55818 4.19899
1 5.03879 6.71838 3.35919
1 5.87859 7.55818 3.35919
1 5.87859 6.71838 4.19899
1 5.03879 7.55818 4.19899
1 6.71838 6.71838 3.35919
1 7.55818 7.55818 3.35919
1 7.55818 6.71838 4.19899
1 6.71838 7.55818 4.19899
1 0 0 5.03879
1 0.839798 0.839798 5.03879
1 0.839798 0 5.87859
1 0 0.839798 5.87859
1 1.6796 0 5.03879
1 2.51939 0.839798 5.03879
1 2.51939 0 5.87859
1 1.6796 0.839798 5.87859
1 3.35919 0 5.03879
1 4.19899 0.839798 5.03879
1 4.19899 0 5.87859
1 3.35919 0.839798 5.87859
1 5.03879 0 5.03879
1 5.87859 0.839798 5.03879
1 5.87859 0 5.87859
1 5.03879 0.839798 5.87859
1 6.71838 0 5.03879
1 7.55818 0.839798 5.03879
1 7.55818 0 5.87859
1 6.71838 0.839798 5.87859
1 0 1.6796 5.03879
1 0.839798 2.51939 5.03879
1 0.839798 1.6796 5.87859
1 0 2.51939 5.87859
1 1.6796 1.6796 5.03879
1 2.51939 2.51939 5.03879
1 2.51939 1.6796 5.87859
1 1.6796 2.51939 5.87859
1 3.35919 1.6796 5.03879
1 4.19899 2.51939 5.03879
1 4.19899 1.6796 5.87859
1 3.35919 2.51939 5.87859
1 5.03879 1.6796 5.03879
1 5.87859 2.51939 5.03879
1 5.87859 1.6796 5.87859
1 5.03879 2.51939 5.87859
1 6.71838 1.6796 5.03879
1 7.55818 2.51939 5.03879
1 7.55818 1.6796 5.87859
1 6.71838 2.51939 5.87859
1 0 3.35919 5.03879
1 0.839798 4.19899 5.03879
1 0.839798 3.35919 5.87859
1 0 4.19899 5.87859
1 1.6796 3.35919 5.03879
1 2.51939 4.19899 5.03879
1 2.51939 3.35919 5.87859
1 1.6796 4.19899 5.87859
1 3.35919 3.35919 5.03879
1 4.19899 4.19899 5.03879
1 4.19899 3.35919 5.87859
1 3.35919 4.19899 5.87859
1 5.03879 3.35919 5.03879
1 5.87859 4.19899 5.03879
1 5.87859 3.35919 5.87859
1 5.03879 4.19899 5.87859
1 6.71838 3.35919 5.03879
1 7.55818 4.19899 5.03879
1 7.55818 3.35919 5.87859
1 6.71838 4.19899 5.87859
1 0 5.03879 5.03879
1 0.839798 5.87859 5.03879
1 0.839798 5.03879 5.87859
1 0 5.87859 5.87859
1 1.6796 5.03879 5.03879
1 2.51939 5.87859 5.03879
1 2.51939 5.03879 5.87859
1 1.6796 5.87859 5.87859
1 3.35919 5.03879 5.03879
1 4.19899 5.87859 5.03879
1 4.19899 5.03879 5.87859
1 3.35919 5.87859 5.87859
1 5.03879 5.03879 5.03879
1 5.87859 5.87859 5.03879
1 5.87859 5.03879 5.87859
1 5.03879 5.87859 5.87859
1 6.71838 5.03879 5.03879
1 7.55818 5.87859 5.03879
1 7.55818 5.03879 5.87859
1 6.71838 5.87859 5.87859
1 0 6.71838 5.03879
1 0.839798 7.55818 5.03879
1 0.839798 6.71838 5.87859
1 0 7.55818 5.87859
1 1.6796 6.71838 5.03879
1 2.51939 7.55818 5.03879
1 2.51939 6.71838 5.87859
1 1.6796 7.55818 5.87859
1 3.35919 6.71838 5.03879
1 4.19899 7.55818 5.03879
1 4.19899 6.71838 5.87859
1 3.35919 7.55818 5.87859
1 5.03879 6.71838 5.03879
1 5.87859 7.55818 5.03879
1 5.87859 6.71838 5.87859
1 5.03879 7.55818 5.87859
1 6.71838 6.71838 5.03879
1 7.55818 7.55818 5.03879
1 7.55818 6.71838 5.87859
1 6.71838 7.55818 5.87859
1 0 0 6.71838
1 0.839798 0.839798 6.71838
1 0.839798 0 7.55818
1 0 0.839798 7.55818
1 1.6796 0 6.71838
1 2.51939 0.839798 6.71838
1 2.51939 0 7.55818
1 1.6796 0.839798 7.55818
1 3.35919 0 6.71838
1 4.19899 0.839798 6.71838
1 4.19899 0 7.55818
1 3.35919 0.839798 7.55818
1 5.03879 0 6.71838
1 5.87859 0.839798 6.71838
1 5.87859 0 7.55818
1 5.03879 0.839798 7.55818
1 6.71838 0 6.71838
1 7.55818 0.839798 6.71838
1 7.55818 0 7.55818
1 6.71838 0.839798 7.55818
1 0 1.6796 6.71838
1 0.839798 2.51939 6.71838
1 0.839798 1.6796 7.55818
1 0 2.51939 7.55818
1 1.6796 1.6796 6.71838
1 2.51939 2.51939 6.71838
1 2.51939 1.6796 7.55818
1 1.6796 2.51939 7.55818
1 3.35919 1.6796 6.71838
1 4.19899 2.51939 6.71838
1 4.19899 1.6796 7.55818
1 3.35919 2.51939 7.55818
1 5.03879 1.6796 6.71838
1 5.87859 2.51939 6.71838
1 5.87859 1.6796 7.55818
1 5.03879 2.51939 7.55818
1 6.71838 1.6796 6.71838
1 7.55818 2.51939 6.71838
1 7.55818 1.6796 7.55818
1 6.71838 2.51939 7.55818
1 0 3.35919 6.71838
1 0.839798 4.19899 6.71838
1 0.839798 3.35919 7.55818
1 0 4.19899 7.55818
1 1.6796 3.35919 6.71838
1 2.51939 4.19899 6.71838
1 2.51939 3.35919 7.55818
1 1.6796 4.19899 7.55818
1 3.35919 3.35919 6.71838
1 4.19899 4.19899 6.71838
1 4.19899 3.35919 7.55818
1 3.35919 4.19899 7.55818
1 5.03879 3.35919 6.71838
1 5.87859 4.19899 6.71838
1 5.87859 3.35919 7.55818
1 5.03879 4.19899 7.55818
1 6.71838 3.35919 6.71838
1 7.55818 4.19899 6.71838
1 7.55818 3.35919 7.55818
1 6.71838 4.19899 7.55818
1 0 5.03879 6.71838
1 0.839798 5.87859 6.71838
1 0.839798 5.03879 7.55818
1 0 5.87859 7.55818
1 1.6796 5.03879 6.71838
1 2.51939 5.87859 6.71838
1 2.51939 5.03879 7.55818
1 1.6796 5.87859 7.55818
1 3.35919 5.03879 6.71838
1 4.19899 5.87859 6.71838
1 4.19899 5.03879 7.55818
1 3.35919 5.87859 7.55818
1 5.03879 5.03879 6.71838
1 5.87859 5.87859 6.71838
1 5.87859 5.03879 7.55818
1 5.03879 5.87859 7.55818
1 6.71838 5.03879 6.71838
1 7.55818 5.87859 6.71838
1 7.55818 5.03879 7.55818
1 6.71838 5.87859 7.55818
1 0 6.71838 6.71838
1 0.839798 7.55818 6.71838
1 0.839798 6.71838 7.55818
1 0 7.55818 7.55818
1 1.6796 6.71838 6.71838
1 2.51939 7.55818 6.71838
1 2.51939 6.71838 7.55818
1 1.6796 7.55818 7.55818
1 3.35919 6.71838 6.71838
1 4.19899 7.55818 6.71838
1 4.19899 6.71838 7.55818
1 3.35919 7.55818 7.55818
1 5.03879 6.71838 6.71838
1 5.87859 7.55818 6.71838
1 5.87859 6.71838 7.55818
1 5.03879 7.55818 7.55818
1 6.71838 6.71838 6.71838
1 7.55818 7.55818 6.71838
1 7.55818 6.71838 7.55818
1 6.71838 7.55818 7.55818
500
Atoms. Timestep: 1
1 0.0021429 0.000547407 0.000372008
1 0.835882 0.841769 -0.0024931
1 0.838228 -0.00532962 0.842941
1 0.000354755 0.842909 0.837384
1 1.67913 0.00249123 0.000173531
1 2.52473 0.841304 0.00569709
1 2.51558 -0.000450252 0.834923
1 1.67736 0.833721 0.833834
1 3.35745 -0.00573019 -0.001887
1 4.20041 0.83783 0.00410928
1 4.19483 0.00601565 0.842805
1 3.35331 0.83837 0.840903
1 5.03399 0.00380788 0.00233583
1 5.87619 0.837178 0.00464715
1 5.8829 -0.00401357 0.834968
1 5.03907 0.839859 0.839047
1 6.7125 -0.00560436 -0.00572443
1 7.56143 0.841313 0.00373701
1 7.55387 0.00519441 0.84167
1 6.72104 0.834258 0.839634
1 -0.000690104 1.67706 0.00105182
1 0.838784 2.51364 0.00311177
1 0.845317 1.68341 0.839877
1 -0.00216369 2.51599 0.841334
1 1.68119 1.67821 -0.00533941
1 2.5141 2.5172 0.00234098
1 2.51673 1.68393 0.842238
1 1.68278 2.51381 0.836157
1 3.36139 1.68531 0.00418068
1 4.19313 2.52169 0.00385401
1 4.20359 1.68479 0.834548
1 3.35438 2.51985 0.83609
1 5.03611 1.6851 0.00501771
1 5.87908 2.52134 -0.00481175
1 5.88349 1.68202 0.843068
1 5.03288 2.52056 0.835726
1 6.71855 1.6838 0.00102734
1 7.5546 2.52516 0.00385058
1 7.55459 1.67485 0.841483
1 6.71753 2.52428 0.841194
1 -0.00293197 3.36515 0.00414336
1 0.838632 4.20464 -0.00580959
1 0.83647 3.35423 0.844375
1 -0.00540965 4.2022 0.83676
1 1.67695 3.36133 0.00144099
1 2.5178 4.20396 0.00274453
1 2.52247 3.36251 0.843744
1 1.68282 4.19692 0.842445
1 3.36219 3.35329 -0.0058147
1 4.19652 4.19729 0.0059187
1 4.20299 3.35445 0.844249
1 3.35543 4.19715 0.833915
1 5.03648 3.36527 0.000959977
1 5.88258 4.19737 -0.00234075
1 5.87308 3.35445 0.843425
1 5.03711 4.20128 0.841013
1 6.71552 3.36538 -0.00543118
1 7.55916 4.19979 0.004129
1 7.56333 3.35737 0.841364
1 6.71567 4.19398 0.838747
1 0.00500327 5.04412 -0.00180338
1 0.834263 5.8753 -0.00131354
1 0.840651 5.03346 0.842536
1 0.00448886 5.87339 0.838296
1 1.68032 5.03872 -0.00219707
1 2.52518 5.87259 0.00459848
1 2.5233 5.03713 0.83466
1 1.67962 5.88447 0.833875
1 3.36248 5.03939 -0.00261468
1 4.19835 5.87787 -0.00232321
1 4.20339 5.04247 0.841814
1 3.35889 5.87771 0.837082
1 5.03836 5.03714 -0.00416483
1 5.87869 5.88482 0.00103975
1 5.8729 5.03982 0.839827
1 5.0372 5.88116 0.833973
1 6.71869 5.03542 -0.00236877
1 7.55261 5.88009 0.00522995
1 7.55777 5.03866 0.835442
1 6.71264 5.87661 0.834698
1 0.00421041 6.71628 -0.000559101
1 0.834113 7.55889 0.00450344
1 0.84457 6.72061 0.839028
1 -0.00168255 7.56369 0.842691
1 1.68043 6.72327 -0.00542141
1 2.5236 7.56288 -0.00344231
1 2.52167 6.71947 0.840562
1 1.67862 7.56297 0.84152
1 3.36144 6.71767 0.000288465
1 4.20332 7.55892 -0.00344123
1 4.19466 6.71679 0.835564
1 3.36461 7.55644 0.840722
1 5.03602 6.71525 -0.0029935
1 5.87897 7.56245 0.00331726
1 5.88128 6.72097 0.843159
1 5.03781 7.56125 0.843225
1 6.71664 6.71668 0.001319
1 7.56278 7.55276 -0.000139581
1 7.554 6.71996 0.842341
1 6.71926 7.55688 0.834606
1 0.00540353 0.00514266 1.67906
1 0.835909 0.840311 1.68014
1 0.843674 -0.00408703 2.51886
1 0.00257189 0.839995 2.52225
1 1.67649 0.0036368 1.68081
1 2.52344 0.845954 1.67642
1 2.52024 0.000316685 2.5198
1 1.67978 0.843543 2.51742
1 3.36208 -0.00126452 1.67925
1 4.19458 0.845588 1.6786
1 4.2002 0.0055281 2.51736
1 3.36015 0.840528 2.52103
1 5.04055 -0.00166095 1.68181
1 5.87368 0.833957 1.68208
1 5.88421 -0.0056555 2.52149
1 5.04039 0.844677 2.51353
1 6.71226 0.00523968 1.67429
1 7.561 0.843441 1.67936
1 7.5625 -0.000784336 2.52419
1 6.72202 0.836834 2.51723
1 0.00308308 1.68574 1.68521
1 0.842125 2.52101 1.67566
1 0.844342 1.68531 2.52069
1 -0.005354 2.51628 2.51565
1 1.67729 1.68115 1.6771
1 2.51977 2.51369 1.68416
1 2.52289 1.6799 2.525
1 1.68252 2.52245 2.51848
1 3.36148 1.67734 1.6783
1 4.20141 2.52387 1.67908
1 4.19296 1.67821 2.51687
1 3.35965 2.51723 2.51858
1 5.0339 1.67484 1.67952
1 5.88211 2.5214 1.68402
1 5.88203 1.67844 2.51489
1 5.03964 2.51662 2.52421
1 6.7214 1.68234 1.68487
1 7.55376 2.51378 1.6768
1 7.56356 1.67495 2.51957
1 6.72234 2.51531 2.51539
1 0.00543242 3.35437 1.6771
1 0.836389 4.20198 1.67651
1 0.834135 3.36065 2.51456
1 -0.00219054 4.20281 2.51663
1 1.68373 3.35375 1.68429
1 2.52139 4.19887 1.67786
1 2.51607 3.35589 2.51837
1 1.67935 4.20364 2.51476
1 3.35713 3.35627 1.67715
1 4.19304 4.19979 1.67566
1 4.19988 3.35675 2.5217
1 3.35641 4.20414 2.51798
1 5.03945 3.36015 1.67461
1 5.87233 4.19932 1.67648
1 5.87471 3.35308 2.52485
1 5.04161 4.20055 2.52321
1 6.71376 3.35387 1.67856
1 7.56168 4.20091 1.67679
1 7.55528 3.36518 2.52257
1 6.71638 4.2014 2.52522
1 0.00526904 5.03848 1.68311
1 0.843134 5.87408 1.68441
1 0.842371 5.03642 2.51891
1 0.00183998 5.8799 2.52477
1 1.67871 5.03961 1.67596
1 2.51828 5.88396 1.68187
1 2.52354 5.03773 2.51422
1 1.67489 5.87521 2.51615
1 3.35812 5.03659 1.68126
1 4.20221 5.87532 1.6788
1 4.1935 5.03365 2.52148
1 3.35548 5.87864 2.51731
1 5.04263 5.03278 1.6754
1 5.88245 5.88218 1.67618
1 5.8808 5.04198 2.52371
1 5.03406 5.88163 2.51727
1 6.72297 5.03456 1.68127
1 7.55419 5.8741 1.68355
1 7.56389 5.03852 2.51763
1 6.71687 5.87805 2.51552
1 -0.00496035 6.71559 1.68153
1 0.841946 7.55364 1.68232
1 0.837656 6.71268 2.51527
1 0.00604646 7.55348 2.52155
1 1.68443 6.71763 1.67635
1 2.51547 7.56128 1.6847
1 2.51933 6.71632 2.51705
1 1.67743 7.55984 2.52378
1 3.35834 6.7209 1.68344
1 4.19981 7.55604 1.68323
1 4.19557 6.71629 2.51759
1 3.35709 7.56108 2.51718
1 5.03569 6.72394 1.68421
1 5.88256 7.56126 1.6821
1 5.88039 6.71686 2.52436
1 5.0433 7.56262 2.51817
1 6.71983 6.71269 1.67631
1 7.55812 7.56016 1.68017
1 7.56167 6.72342 2.5138
1 6.71616 7.55871 2.52223
1 0.00179565 -0.000357875 3.35825
1 0.843439 0.837967 3.3583
1 0.842121 -0.00440309 4.20137
1 0.00486174 0.845159 4.20387
1 1.68379 0.0045452 3.36452
1 2.51865 0.841834 3.36079
1 2.51967 -0.004704 4.19869
1 1.67577 0.842932 4.20501
1 3.35862 0.00198833 3.35656
1 4.20455 0.842212 3.36488
1 4.19763 0.00555394 4.19772
1 3.35761 0.841283 4.20086
1 5.03573 0.00272016 3.35412
1 5.87912 0.838479 3.35397
1 5.88266 -0.00562689 4.19872
1 5.03755 0.845249 4.19987
1 6.71822 -0.005379 3.36244
1 7.55944 0.837301 3.36525
1 7.55516 0.000515445 4.19491
1 6.72035 0.836511 4.1947
1 -0.00188799 1.67644 3.36283
1 0.839759 2.51455 3.3616
1 0.843291 1.67478 4.19636
1 -0.00389127 2.52048 4.20191
1 1.67405 1.6804 3.35599
1 2.51446 2.51766 3.36191
1 2.51709 1.67852 4.20142
1 1.67804 2.51982 4.19711
1 3.35993 1.68388 3.35761
1 4.19446 2.51962 3.35727
1 4.20437 1.68358 4.19537
1 3.35517 2.51661 4.2015
1 5.03304 1.68253 3.36046
1 5.87901 2.51895 3.36176
1 5.87233 1.68252 4.19625
1 5.0437 2.51659 4.19357
1 6.71892 1.67601 3.3589
1 7.55624 2.52447 3.35606
1 7.56101 1.67924 4.19504
1 6.71869 2.51385 4.193
1 -0.0026281 3.35564 3.35548
1 0.845095 4.20154 3.36137
1 0.842732 3.36091 4.20289
1 -0.00564417 4.20026 4.20137
1 1.68084 3.35819 3.35322
1 2.52352 4.19756 3.3605
1 2.52138 3.36431 4.20436
1 1.67412 4.19676 4.19421
1 3.35657 3.35995 3.3625
1 4.19886 4.20379 3.36238
1 4.19688 3.35356 4.20209
1 3.35413 4.20324 4.2033
1 5.0423 3.3644 3.36413
1 5.87994 4.19296 3.35555
1 5.8735 3.36507 4.20179
1 5.03306 4.20328 4.1988
1 6.7181 3.36427 3.36174
1 7.55703 4.19488 3.35364
1 7.55364 3.36424 4.195
1 6.71582 4.20268 4.19768
1 -0.00279319 5.03566 3.35881
1 0.842225 5.87455 3.35504
1 0.844977 5.03691 4.20389
1 0.000514151 5.88462 4.20102
1 1.6853 5.04229 3.3617
1 2.52064 5.87302 3.35671
1 2.52222 5.03441 4.20328
1 1.68009 5.87717 4.20276
1 3.35943 5.03788 3.36111
1 4.20397 5.87468 3.36007
1 4.20336 5.03834 4.20062
1 3.35288 5.8774 4.19448
1 5.03545 5.03665 3.35804
1 5.87872 5.88094 3.35929
1 5.87414 5.03275 4.2022
1 5.04367 5.88434 4.20422
1 6.72047 5.03785 3.3621
1 7.55354 5.87457 3.3641
1 7.55225 5.0397 4.20025
1 6.71817 5.88134 4.20048
1 -0.0028372 6.71896 3.35814
1 0.84377 7.55847 3.36541
1 0.837229 6.72103 4.19482
1 0.00361594 7.56288 4.20307
1 1.67492 6.71394 3.35389
1 2.5199 7.56402 3.36311
1 2.51664 6.71956 4.20048
1 1.67461 7.56106 4.20502
1 3.35512 6.71312 3.35971
1 4.19992 7.55362 3.35761
1 4.19822 6.72221 4.19359
1 3.35395 7.56065 4.19674
1 5.04089 6.7219 3.36001
1 5.87607 7.55571 3.36275
1 5.87709 6.71483 4.19855
1 5.03907 7.55361 4.20475
1 6.72384 6.71311 3.36487
1 7.55319 7.56003 3.35849
1 7.55742 6.72002 4.19542
1 6.71637 7.56415 4.19409
1 -0.0022688 0.00171927 5.0361
1 0.841706 0.838312 5.04371
1 0.845481 -0.00462417 5.88194
1 0.000406378 0.843295 5.87804
1 1.68195 -0.000149948 5.03877
1 2.51824 0.839858 5.0407
1 2.52164 -0.00580883 5.8806
1 1.67884 0.835983 5.88089
1 3.35749 0.00381289 5.03854
1 4.20205 0.840321 5.04239
1 4.19273 -0.00363915 5.87303
1 3.36406 0.839693 5.87805
1 5.03333 -0.000991302 5.03405
1 5.87442 0.836099 5.03745
1 5.8751 -0.00193663 5.88088
1 5.04341 0.834119 5.87676
1 6.72041 0.00175698 5.03808
1 7.55194 0.838953 5.03749
1 7.56263 -0.00129093 5.88033
1 6.7207 0.843933 5.88415
1 0.00123539 1.67865 5.04197
1 0.834111 2.5211 5.04083
1 0.841704 1.67498 5.87997
1 0.00525443 2.52133 5.87777
1 1.67628 1.68245 5.03712
1 2.51758 2.52214 5.04021
1 2.52091 1.68425 5.87674
1 1.68242 2.51852 5.87419
1 3.36292 1.67567 5.04029
1 4.19864 2.52179 5.03688
1 4.19314 1.68221 5.88278
1 3.35676 2.52346 5.87275
1 5.03413 1.6774 5.0444
1 5.88077 2.51959 5.03485
1 5.87346 1.6808 5.88008
1 5.0422 2.51475 5.88085
1 6.71377 1.68559 5.04188
1 7.55382 2.52187 5.04201
1 7.56169 1.68527 5.87883
1 6.72084 2.52538 5.87323
1 0.00525521 3.3617 5.03275
1 0.840692 4.1962 5.04307
1 0.844012 3.36188 5.87756
1 -0.00477089 4.19651 5.87469
1 1.67356 3.363 5.03665
1 2.51767 4.20255 5.03698
1 2.51629 3.36511 5.87333
1 1.6788 4.19688 5.87348
1 3.36423 3.36198 5.03586
1 4.19553 4.19773 5.04115
1 4.19386 3.36392 5.8794
1 3.35351 4.20156 5.88314
1 5.04088 3.35684 5.04032
1 5.87701 4.19872 5.04225
1 5.87469 3.35688 5.87834
1 5.03351 4.20056 5.87922
1 6.7131 3.36131 5.04066
1 7.55843 4.19648 5.04436
1 7.56249 3.35408 5.88108
1 6.71884 4.2003 5.87336
1 0.00459733 5.0355 5.03409
1 0.842948 5.87302 5.03498
1 0.844886 5.0335 5.88239
1 0.000198467 5.88144 5.87327
1 1.68342 5.03587 5.04172
1 2.52334 5.88231 5.04354
1 2.51808 5.03759 5.87309
1 1.68284 5.87964 5.87375
1 3.35944 5.03738 5.0378
1 4.2049 5.88038 5.03476
1 4.1962 5.03766 5.87638
1 3.35934 5.88103 5.87621
1 5.03512 5.04113 5.03497
1 5.87691 5.87972 5.03776
1 5.87895 5.03348 5.87841
1 5.04289 5.87815 5.87735
1 6.72219 5.04434 5.03833
1 7.55605 5.8763 5.03447
1 7.55224 5.03612 5.87889
1 6.71321 5.88445 5.88395
1 0.00229036 6.71947 5.04197
1 0.84193 7.5644 5.03826
1 0.838545 6.71786 5.8764
1 -0.00443271 7.55285 5.87984
1 1.67629 6.71481 5.03924
1 2.51829 7.55957 5.03646
1 2.51493 6.72059 5.87314
1 1.6833 7.55557 5.87408
1 3.35719 6.71971 5.03855
1 4.2034 7.55426 5.03399
1 4.2047 6.71426 5.875
1 3.35498 7.55724 5.88098
1 5.04167 6.71406 5.0363
1 5.87681 7.56214 5.04235
1 5.87484 6.723 5.87639
1 5.03323 7.55236 5.87502
1 6.72001 6.71416 5.04196
1 7.55929 7.56128 5.04186
1 7.56096 6.72291 5.88478
1 6.72126 7.55618 5.874
1 0.00560418 -0.0046295 6.71892
1 0.843248 0.836664 6.72289
1 0.845864 0.00194074 7.56096
1 0.00215881 0.835155 7.55307
1 1.67633 -0.00238367 6.7151
1 2.51955 0.840592 6.7156
1 2.51844 0.00431662 7.56248
1 1.68184 0.838085 7.5563
1 3.35564 -0.00308145 6.71989
1 4.20235 0.842096 6.7135
1 4.20159 0.0019182 7.55389
1 3.35949 0.841314 7.56264
1 5.04222 -8.10938e-05 6.72342
1 5.88233 0.841639 6.71304
1 5.87711 0.00293696 7.55437
1 5.04213 0.842775 7.56391
1 6.71336 0.00167938 6.71426
1 7.56 0.837725 6.7153
1 7.56015 -0.00336919 7.55544
1 6.71799 0.843284 7.56299
1 -0.00310337 1.67903 6.71927
1 0.842477 2.51563 6.71954
1 0.842206 1.67978 7.5622
1 -0.00315804 2.51685 7.55654
1 1.67525 1.67776 6.72048
1 2.52295 2.51854 6.71799
1 2.51808 1.6818 7.55722
1 1.67527 2.51762 7.55894
1 3.36361 1.67919 6.71479
1 4.20232 2.52155 6.72198
1 4.2021 1.6773 7.55252
1 3.3533 2.51724 7.56391
1 5.04409 1.67726 6.72364
1 5.87489 2.52145 6.72193
1 5.88398 1.67933 7.56314
1 5.04281 2.52068 7.56413
1 6.7121 1.67552 6.72462
1 7.56123 2.51929 6.71819
1 7.55791 1.67536 7.55584
1 6.71855 2.51962 7.55874
1 -0.000147429 3.35904 6.71927
1 0.836311 4.1964 6.71644
1 0.844256 3.35939 7.55973
1 0.000849434 4.20311 7.55956
1 1.68256 3.35938 6.72225
1 2.51497 4.19613 6.72006
1 2.52004 3.35356 7.55808
1 1.68291 4.19641 7.56204
1 3.36451 3.36524 6.71992
1 4.20221 4.20473 6.71339
1 4.19614 3.3549 7.55763
1 3.35814 4.19523 7.55441
1 5.03508 3.35358 6.72454
1 5.8841 4.19392 6.7192
1 5.87699 3.35838 7.5641
1 5.03469 4.20495 7.55747
1 6.72424 3.35904 6.71847
1 7.55535 4.19745 6.71367
1 7.55574 3.35946 7.56229
1 6.71392 4.20457 7.55484
1 -0.005345 5.03834 6.7195
1 0.844184 5.87946 6.72409
1 0.838485 5.03515 7.55259
1 0.00276322 5.87326 7.55348
1 1.68524 5.0437 6.71287
1 2.51633 5.87329 6.72239
1 2.52169 5.03431 7.56291
1 1.68273 5.87263 7.55354
1 3.36388 5.03726 6.72068
1 4.20346 5.87313 6.72441
1 4.19542 5.03705 7.55224
1 3.36368 5.88393 7.55638
1 5.03392 5.04148 6.71335
1 5.87597 5.87541 6.71651
1 5.87732 5.04007 7.56331
1 5.03828 5.87305 7.55435
1 6.72184 5.04358 6.7233
1 7.55523 5.88267 6.71433
1 7.56097 5.04143 7.55649
1 6.72418 5.87305 7.55335
1 -0.000485729 6.719 6.71729
1 0.841208 7.55989 6.71808
1 0.842718 6.71376 7.55533
1 0.00584406 7.55874 7.55224
1 1.68136 6.72405 6.71444
1 2.52258 7.5628 6.71728
1 2.52432 6.71861 7.5588
1 1.67824 7.5528 7.55566
1 3.35321 6.72255 6.71284
1 4.19752 7.56074 6.72432
1 4.19787 6.72251 7.56294
1 3.35723 7.5522 7.55213
1 5.03909 6.71418 6.71947
1 5.88076 7.56077 6.72235
1 5.88011 6.71327 7.55579
1 5.04055 7.56016 7.55582
1 6.71447 6.71827 6.72219
1 7.56393 7.56091 6.72275
1 7.55989 6.71735 7.55529
1 6.72244 7.55833 7.55609
