1600
Atoms. Timestep: 0
1 0 0 0
1 0.584766 1.01284 0
1 1.16953 0 0
1 1.7543 1.01284 0
1 2.33906 0 0
1 2.92383 1.01284 0
1 3.5086 0 0
1 4.09336 1.01284 0
1 4.67813 0 0
1 5.26289 1.01284 0
1 5.84766 0 0
1 6.43242 1.01284 0
1 7.01719 0 0
1 7.60196 1.01284 0
1 8.18672 0 0
1 8.77149 1.01284 0
1 9.35625 0 0
1 9.94102 1.01284 0
1 10.5258 0 0
1 11.1106 1.01284 0
1 11.6953 0 0
1 12.2801 1.01284 0
1 12.8648 0 0
1 13.4496 1.01284 0
1 14.0344 0 0
1 14.6191 1.01284 0
1 15.2039 0 0
1 15.7887 1.01284 0
1 16.3734 0 0
1 16.9582 1.01284 0
1 17.543 0 0
1 18.1277 1.01284 0
1 18.7125 0 0
1 19.2973 1.01284 0
1 19.882 0 0
1 20.4668 1.01284 0
1 21.0516 0 0
1 21.6363 1.01284 0
1 22.2211 0 0
1 22.8059 1.01284 0
1 23.3906 0 0
1 23.9754 1.01284 0
1 24.5602 0 0
1 25.1449 1.01284 0
1 25.7297 0 0
1 26.3145 1.01284 0
1 26.8992 0 0
1 27.484 1.01284 0
1 28.0688 0 0
1 28.6535 1.01284 0
1 29.2383 0 0
1 29.8231 1.01284 0
1 30.4078 0 0
1 30.9926 1.01284 0
1 31.5774 0 0
1 32.1621 1.01284 0
1 32.7469 0 0
1 33.3317 1.01284 0
1 33.9164 0 0
1 34.5012 1.01284 0
1 35.086 0 0
1 35.6707 1.01284 0
1 36.2555 0 0
1 36.8402 1.01284 0
1 37.425 0 0
1 38.0098 1.01284 0
1 38.5945 0 0
1 39.1793 1.01284 0
1 39.7641 0 0
1 40.3488 1.01284 0
1 40.9336 0 0
1 41.5184 1.01284 0
1 42.1031 0 0
1 42.6879 1.01284 0
1 43.2727 0 0
1 43.8574 1.01284 0
1 44.4422 0 0
1 45.027 1.01284 0
1 45.6117 0 0
1 46.1965 1.01284 0
1 0 2.02569 0
1 0.584766 3.03853 0
1 1.16953 2.02569 0
1 1.7543 3.03853 0
1 2.33906 2.02569 0
1 2.92383 3.03853 0
1 3.5086 2.02569 0
1 4.09336 3.03853 0
1 4.67813 2.02569 0
1 5.26289 3.03853 0
1 5.84766 2.02569 0
1 6.43242 3.03853 0
1 7.01719 2.02569 0
1 7.60196 3.03853 0
1 8.18672 2.02569 0
1 8.77149 3.03853 0
1 9.35625 2.02569 0
1 9.94102 3.03853 0
1 10.5258 2.02569 0
1 11.1106 3.03853 0
1 11.6953 2.02569 0
1 12.2801 3.03853 0
1 12.8648 2.02569 0
1 13.4496 3.03853 0
1 14.0344 2.02569 0
1 14.6191 3.03853 0
1 15.2039 2.02569 0
1 15.7887 3.03853 0
1 16.3734 2.02569 0
1 16.9582 3.03853 0
1 17.543 2.02569 0
1 18.1277 3.03853 0
1 18.7125 2.02569 0
1 19.2973 3.03853 0
1 19.882 2.02569 0
1 20.4668 3.03853 0
1 21.0516 2.02569 0
1 21.6363 3.03853 0
1 22.2211 2.02569 0
1 22.8059 3.03853 0
1 23.3906 2.02569 0
1 23.9754 3.03853 0
1 24.5602 2.02569 0
1 25.1449 3.03853 0
1 25.7297 2.02569 0
1 26.3145 3.03853 0
1 26.8992 2.02569 0
1 27.484 3.03853 0
1 28.0688 2.02569 0
1 28.6535 3.03853 0
1 29.2383 2.02569 0
1 29.8231 3.03853 0
1 30.4078 2.02569 0
1 30.9926 3.03853 0
1 31.5774 2.02569 0
1 32.1621 3.03853 0
1 32.7469 2.02569 0
1 33.3317 3.03853 0
1 33.9164 2.02569 0
1 34.5012 3.03853 0
1 35.086 2.02569 0
1 35.6707 3.03853 0
1 36.2555 2.02569 0
1 36.8402 3.03853 0
1 37.425 2.02569 0
1 38.0098 3.03853 0
1 38.5945 2.02569 0
1 39.1793 3.03853 0
1 39.7641 2.02569 0
1 40.3488 3.03853 0
1 40.9336 2.02569 0
1 41.5184 3.03853 0
1 42.1031 2.02569 0
1 42.6879 3.03853 0
1 43.2727 2.02569 0
1 43.8574 3.03853 0
1 44.4422 2.02569 0
1 45.027 3.03853 0
1 45.6117 2.02569 0
1 46.1965 3.03853 0
1 0 4.05138 0
1 0.584766 5.06422 0
1 1.16953 4.05138 0
1 1.7543 5.06422 0
1 2.33906 4.05138 0
1 2.92383 5.06422 0
1 3.5086 4.05138 0
1 4.09336 5.06422 0
1 4.67813 4.05138 0
1 5.26289 5.06422 0
1 5.84766 4.05138 0
1 6.43242 5.06422 0
1 7.01719 4.05138 0
1 7.60196 5.06422 0
1 8.18672 4.05138 0
1 8.77149 5.06422 0
1 9.35625 4.05138 0
1 9.94102 5.06422 0
1 10.5258 4.05138 0
1 11.1106 5.06422 0
1 11.6953 4.05138 0
1 12.2801 5.06422 0
1 12.8648 4.05138 0
1 13.4496 5.06422 0
1 14.0344 4.05138 0
1 14.6191 5.06422 0
1 15.2039 4.05138 0
1 15.7887 5.06422 0
1 16.3734 4.05138 0
1 16.9582 5.06422 0
1 17.543 4.05138 0
1 18.1277 5.06422 0
1 18.7125 4.05138 0
1 19.2973 5.06422 0
1 19.882 4.05138 0
1 20.4668 5.06422 0
1 21.0516 4.05138 0
1 21.6363 5.06422 0
1 22.2211 4.05138 0
1 22.8059 5.06422 0
1 23.3906 4.05138 0
1 23.9754 5.06422 0
1 24.5602 4.05138 0
1 25.1449 5.06422 0
1 25.7297 4.05138 0
1 26.3145 5.06422 0
1 26.8992 4.05138 0
1 27.484 5.06422 0
1 28.0688 4.05138 0
1 28.6535 5.06422 0
1 29.2383 4.05138 0
1 29.8231 5.06422 0
1 30.4078 4.05138 0
1 30.9926 5.06422 0
1 31.5774 4.05138 0
1 32.1621 5.06422 0
1 32.7469 4.05138 0
1 33.3317 5.06422 0
1 33.9164 4.05138 0
1 34.5012 5.06422 0
1 35.086 4.05138 0
1 35.6707 5.06422 0
1 36.2555 4.05138 0
1 36.8402 5.06422 0
1 37.425 4.05138 0
1 38.0098 5.06422 0
1 38.5945 4.05138 0
1 39.1793 5.06422 0
1 39.7641 4.05138 0
1 40.3488 5.06422 0
1 40.9336 4.05138 0
1 41.5184 5.06422 0
1 42.1031 4.05138 0
1 42.6879 5.06422 0
1 43.2727 4.05138 0
1 43.8574 5.06422 0
1 44.4422 4.05138 0
1 45.027 5.06422 0
1 45.6117 4.05138 0
1 46.1965 5.06422 0
1 0 6.07707 0
1 0.584766 7.08991 0
1 1.16953 6.07707 0
1 1.7543 7.08991 0
1 2.33906 6.07707 0
1 2.92383 7.08991 0
1 3.5086 6.07707 0
1 4.09336 7.08991 0
1 4.67813 6.07707 0
1 5.26289 7.08991 0
1 5.84766 6.07707 0
1 6.43242 7.08991 0
1 7.01719 6.07707 0
1 7.60196 7.08991 0
1 8.18672 6.07707 0
1 8.77149 7.08991 0
1 9.35625 6.07707 0
1 9.94102 7.08991 0
1 10.5258 6.07707 0
1 11.1106 7.08991 0
1 11.6953 6.07707 0
1 12.2801 7.08991 0
1 12.8648 6.07707 0
1 13.4496 7.08991 0
1 14.0344 6.07707 0
1 14.6191 7.08991 0
1 15.2039 6.07707 0
1 15.7887 7.08991 0
1 16.3734 6.07707 0
1 16.9582 7.08991 0
1 17.543 6.07707 0
1 18.1277 7.08991 0
1 18.7125 6.07707 0
1 19.2973 7.08991 0
1 19.882 6.07707 0
1 20.4668 7.08991 0
1 21.0516 6.07707 0
1 21.6363 7.08991 0
1 22.2211 6.07707 0
1 22.8059 7.08991 0
1 23.3906 6.07707 0
1 23.9754 7.08991 0
1 24.5602 6.07707 0
1 25.1449 7.08991 0
1 25.7297 6.07707 0
1 26.3145 7.08991 0
1 26.8992 6.07707 0
1 27.484 7.08991 0
1 28.0688 6.07707 0
1 28.6535 7.08991 0
1 29.2383 6.07707 0
1 29.8231 7.08991 0
1 30.4078 6.07707 0
1 30.9926 7.08991 0
1 31.5774 6.07707 0
1 32.1621 7.08991 0
1 32.7469 6.07707 0
1 33.3317 7.08991 0
1 33.9164 6.07707 0
1 34.5012 7.08991 0
1 35.086 6.07707 0
1 35.6707 7.08991 0
1 36.2555 6.07707 0
1 36.8402 7.08991 0
1 37.425 6.07707 0
1 38.0098 7.08991 0
1 38.5945 6.07707 0
1 39.1793 7.08991 0
1 39.7641 6.07707 0
1 40.3488 7.08991 0
1 40.9336 6.07707 0
1 41.5184 7.08991 0
1 42.1031 6.07707 0
1 42.6879 7.08991 0
1 43.2727 6.07707 0
1 43.8574 7.08991 0
1 44.4422 6.07707 0
1 45.027 7.08991 0
1 45.6117 6.07707 0
1 46.1965 7.08991 0
1 0 8.10275 0
1 0.584766 9.1156 0
1 1.16953 8.10275 0
1 1.7543 9.1156 0
1 2.33906 8.10275 0
1 2.92383 9.1156 0
1 3.5086 8.10275 0
1 4.09336 9.1156 0
1 4.67813 8.10275 0
1 5.26289 9.1156 0
1 5.84766 8.10275 0
1 6.43242 9.1156 0
1 7.01719 8.10275 0
1 7.60196 9.1156 0
1 8.18672 8.10275 0
1 8.77149 9.1156 0
1 9.35625 8.10275 0
1 9.94102 9.1156 0
1 10.5258 8.10275 0
1 11.1106 9.1156 0
1 11.6953 8.10275 0
1 12.2801 9.1156 0
1 12.8648 8.10275 0
1 13.4496 9.1156 0
1 14.0344 8.10275 0
1 14.6191 9.1156 0
1 15.2039 8.10275 0
1 15.7887 9.1156 0
1 16.3734 8.10275 0
1 16.9582 9.1156 0
1 17.543 8.10275 0
1 18.1277 9.1156 0
1 18.7125 8.10275 0
1 19.2973 9.1156 0
1 19.882 8.10275 0
1 20.4668 9.1156 0
1 21.0516 8.10275 0
1 21.6363 9.1156 0
1 22.2211 8.10275 0
1 22.8059 9.1156 0
1 23.3906 8.10275 0
1 23.9754 9.1156 0
1 24.5602 8.10275 0
1 25.1449 9.1156 0
1 25.7297 8.10275 0
1 26.3145 9.1156 0
1 26.8992 8.10275 0
1 27.484 9.1156 0
1 28.0688 8.10275 0
1 28.6535 9.1156 0
1 29.2383 8.10275 0
1 29.8231 9.1156 0
1 30.4078 8.10275 0
1 30.9926 9.1156 0
1 31.5774 8.10275 0
1 32.1621 9.1156 0
1 32.7469 8.10275 0
1 33.3317 9.1156 0
1 33.9164 8.10275 0
1 34.5012 9.1156 0
1 35.086 8.10275 0
1 35.6707 9.1156 0
1 36.2555 8.10275 0
1 36.8402 9.1156 0
1 37.425 8.10275 0
1 38.0098 9.1156 0
1 38.5945 8.10275 0
1 39.1793 9.1156 0
1 39.7641 8.10275 0
1 40.3488 9.1156 0
1 40.9336 8.10275 0
1 41.5184 9.1156 0
1 42.1031 8.10275 0
1 42.6879 9.1156 0
1 43.2727 8.10275 0
1 43.8574 9.1156 0
1 44.4422 8.10275 0
1 45.027 9.1156 0
1 45.6117 8.10275 0
1 46.1965 9.1156 0
1 0 10.1284 0
1 0.584766 11.1413 0
1 1.16953 10.1284 0
1 1.7543 11.1413 0
1 2.33906 10.1284 0
1 2.92383 11.1413 0
1 3.5086 10.1284 0
1 4.09336 11.1413 0
1 4.67813 10.1284 0
1 5.26289 11.1413 0
1 5.84766 10.1284 0
1 6.43242 11.1413 0
1 7.01719 10.1284 0
1 7.60196 11.1413 0
1 8.18672 10.1284 0
1 8.77149 11.1413 0
1 9.35625 10.1284 0
1 9.94102 11.1413 0
1 10.5258 10.1284 0
1 11.1106 11.1413 0
1 11.6953 10.1284 0
1 12.2801 11.1413 0
1 12.8648 10.1284 0
1 13.4496 11.1413 0
1 14.0344 10.1284 0
1 14.6191 11.1413 0
1 15.2039 10.1284 0
1 15.7887 11.1413 0
1 16.3734 10.1284 0
1 16.9582 11.1413 0
1 17.543 10.1284 0
1 18.1277 11.1413 0
1 18.7125 10.1284 0
1 19.2973 11.1413 0
1 19.882 10.1284 0
1 20.4668 11.1413 0
1 21.0516 10.1284 0
1 21.6363 11.1413 0
1 22.2211 10.1284 0
1 22.8059 11.1413 0
1 23.3906 10.1284 0
1 23.9754 11.1413 0
1 24.5602 10.1284 0
1 25.1449 11.1413 0
1 25.7297 10.1284 0
1 26.3145 11.1413 0
1 26.8992 10.1284 0
1 27.484 11.1413 0
1 28.0688 10.1284 0
1 28.6535 11.1413 0
1 29.2383 10.1284 0
1 29.8231 11.1413 0
1 30.4078 10.1284 0
1 30.9926 11.1413 0
1 31.5774 10.1284 0
1 32.1621 11.1413 0
1 32.7469 10.1284 0
1 33.3317 11.1413 0
1 33.9164 10.1284 0
1 34.5012 11.1413 0
1 35.086 10.1284 0
1 35.6707 11.1413 0
1 36.2555 10.1284 0
1 36.8402 11.1413 0
1 37.425 10.1284 0
1 38.0098 11.1413 0
1 38.5945 10.1284 0
1 39.1793 11.1413 0
1 39.7641 10.1284 0
1 40.3488 11.1413 0
1 40.9336 10.1284 0
1 41.5184 11.1413 0
1 42.1031 10.1284 0
1 42.6879 11.1413 0
1 43.2727 10.1284 0
1 43.8574 11.1413 0
1 44.4422 10.1284 0
1 45.027 11.1413 0
1 45.6117 10.1284 0
1 46.1965 11.1413 0
1 0 12.1541 0
1 0.584766 13.167 0
1 1.16953 12.1541 0
1 1.7543 13.167 0
1 2.33906 12.1541 0
1 2.92383 13.167 0
1 3.5086 12.1541 0
1 4.09336 13.167 0
1 4.67813 12.1541 0
1 5.26289 13.167 0
1 5.84766 12.1541 0
1 6.43242 13.167 0
1 7.01719 12.1541 0
1 7.60196 13.167 0
1 8.18672 12.1541 0
1 8.77149 13.167 0
1 9.35625 12.1541 0
1 9.94102 13.167 0
1 10.5258 12.1541 0
1 11.1106 13.167 0
1 11.6953 12.1541 0
1 12.2801 13.167 0
1 12.8648 12.1541 0
1 13.4496 13.167 0
1 14.0344 12.1541 0
1 14.6191 13.167 0
1 15.2039 12.1541 0
1 15.7887 13.167 0
1 16.3734 12.1541 0
1 16.9582 13.167 0
1 17.543 12.1541 0
1 18.1277 13.167 0
1 18.7125 12.1541 0
1 19.2973 13.167 0
1 19.882 12.1541 0
1 20.4668 13.167 0
1 21.0516 12.1541 0
1 21.6363 13.167 0
1 22.2211 12.1541 0
1 22.8059 13.167 0
1 23.3906 12.1541 0
1 23.9754 13.167 0
1 24.5602 12.1541 0
1 25.1449 13.167 0
1 25.7297 12.1541 0
1 26.3145 13.167 0
1 26.8992 12.1541 0
1 27.484 13.167 0
1 28.0688 12.1541 0
1 28.6535 13.167 0
1 29.2383 12.1541 0
1 29.8231 13.167 0
1 30.4078 12.1541 0
1 30.9926 13.167 0
1 31.5774 12.1541 0
1 32.1621 13.167 0
1 32.7469 12.1541 0
1 33.3317 13.167 0
1 33.9164 12.1541 0
1 34.5012 13.167 0
1 35.086 12.1541 0
1 35.6707 13.167 0
1 36.2555 12.1541 0
1 36.8402 13.167 0
1 37.425 12.1541 0
1 38.0098 13.167 0
1 38.5945 12.1541 0
1 39.1793 13.167 0
1 39.7641 12.1541 0
1 40.3488 13.167 0
1 40.9336 12.1541 0
1 41.5184 13.167 0
1 42.1031 12.1541 0
1 42.6879 13.167 0
1 43.2727 12.1541 0
1 43.8574 13.167 0
1 44.4422 12.1541 0
1 45.027 13.167 0
1 45.6117 12.1541 0
1 46.1965 13.167 0
1 0 14.1798 0
1 0.584766 15.1927 0
1 1.16953 14.1798 0
1 1.7543 15.1927 0
1 2.33906 14.1798 0
1 2.92383 15.1927 0
1 3.5086 14.1798 0
1 4.09336 15.1927 0
1 4.67813 14.1798 0
1 5.26289 15.1927 0
1 5.84766 14.1798 0
1 6.43242 15.1927 0
1 7.01719 14.1798 0
1 7.60196 15.1927 0
1 8.18672 14.1798 0
1 8.77149 15.1927 0
1 9.35625 14.1798 0
1 9.94102 15.1927 0
1 10.5258 14.1798 0
1 11.1106 15.1927 0
1 11.6953 14.1798 0
1 12.2801 15.1927 0
1 12.8648 14.1798 0
1 13.4496 15.1927 0
1 14.0344 14.1798 0
1 14.6191 15.1927 0
1 15.2039 14.1798 0
1 15.7887 15.1927 0
1 16.3734 14.1798 0
1 16.9582 15.1927 0
1 17.543 14.1798 0
1 18.1277 15.1927 0
1 18.7125 14.1798 0
1 19.2973 15.1927 0
1 19.882 14.1798 0
1 20.4668 15.1927 0
1 21.0516 14.1798 0
1 21.6363 15.1927 0
1 22.2211 14.1798 0
1 22.8059 15.1927 0
1 23.3906 14.1798 0
1 23.9754 15.1927 0
1 24.5602 14.1798 0
1 25.1449 15.1927 0
1 25.7297 14.1798 0
1 26.3145 15.1927 0
1 26.8992 14.1798 0
1 27.484 15.1927 0
1 28.0688 14.1798 0
1 28.6535 15.1927 0
1 29.2383 14.1798 0
1 29.8231 15.1927 0
1 30.4078 14.1798 0
1 30.9926 15.1927 0
1 31.5774 14.1798 0
1 32.1621 15.1927 0
1 32.7469 14.1798 0
1 33.3317 15.1927 0
1 33.9164 14.1798 0
1 34.5012 15.1927 0
1 35.086 14.1798 0
1 35.6707 15.1927 0
1 36.2555 14.1798 0
1 36.8402 15.1927 0
1 37.425 14.1798 0
1 38.0098 15.1927 0
1 38.5945 14.1798 0
1 39.1793 15.1927 0
1 39.7641 14.1798 0
1 40.3488 15.1927 0
1 40.9336 14.1798 0
1 41.5184 15.1927 0
1 42.1031 14.1798 0
1 42.6879 15.1927 0
1 43.2727 14.1798 0
1 43.8574 15.1927 0
1 44.4422 14.1798 0
1 45.027 15.1927 0
1 45.6117 14.1798 0
1 46.1965 15.1927 0
1 0 16.2055 0
1 0.584766 17.2184 0
1 1.16953 16.2055 0
1 1.7543 17.2184 0
1 2.33906 16.2055 0
1 2.92383 17.2184 0
1 3.5086 16.2055 0
1 4.09336 17.2184 0
1 4.67813 16.2055 0
1 5.26289 17.2184 0
1 5.84766 16.2055 0
1 6.43242 17.2184 0
1 7.01719 16.2055 0
1 7.60196 17.2184 0
1 8.18672 16.2055 0
1 8.77149 17.2184 0
1 9.35625 16.2055 0
1 9.94102 17.2184 0
1 10.5258 16.2055 0
1 11.1106 17.2184 0
1 11.6953 16.2055 0
1 12.2801 17.2184 0
1 12.8648 16.2055 0
1 13.4496 17.2184 0
1 14.0344 16.2055 0
1 14.6191 17.2184 0
1 15.2039 16.2055 0
1 15.7887 17.2184 0
1 16.3734 16.2055 0
1 16.9582 17.2184 0
1 17.543 16.2055 0
1 18.1277 17.2184 0
1 18.7125 16.2055 0
1 19.2973 17.2184 0
1 19.882 16.2055 0
1 20.4668 17.2184 0
1 21.0516 16.2055 0
1 21.6363 17.2184 0
1 22.2211 16.2055 0
1 22.8059 17.2184 0
1 23.3906 16.2055 0
1 23.9754 17.2184 0
1 24.5602 16.2055 0
1 25.1449 17.2184 0
1 25.7297 16.2055 0
1 26.3145 17.2184 0
1 26.8992 16.2055 0
1 27.484 17.2184 0
1 28.0688 16.2055 0
1 28.6535 17.2184 0
1 29.2383 16.2055 0
1 29.8231 17.2184 0
1 30.4078 16.2055 0
1 30.9926 17.2184 0
1 31.5774 16.2055 0
1 32.1621 17.2184 0
1 32.7469 16.2055 0
1 33.3317 17.2184 0
1 33.9164 16.2055 0
1 34.5012 17.2184 0
1 35.086 16.2055 0
1 35.6707 17.2184 0
1 36.2555 16.2055 0
1 36.8402 17.2184 0
1 37.425 16.2055 0
1 38.0098 17.2184 0
1 38.5945 16.2055 0
1 39.1793 17.2184 0
1 39.7641 16.2055 0
1 40.3488 17.2184 0
1 40.9336 16.2055 0
1 41.5184 17.2184 0
1 42.1031 16.2055 0
1 42.6879 17.2184 0
1 43.2727 16.2055 0
1 43.8574 17.2184 0
1 44.4422 16.2055 0
1 45.027 17.2184 0
1 45.6117 16.2055 0
1 46.1965 17.2184 0
1 0 18.2312 0
1 0.584766 19.244 0
1 1.16953 18.2312 0
1 1.7543 19.244 0
1 2.33906 18.2312 0
1 2.92383 19.244 0
1 3.5086 18.2312 0
1 4.09336 19.244 0
1 4.67813 18.2312 0
1 5.26289 19.244 0
1 5.84766 18.2312 0
1 6.43242 19.244 0
1 7.01719 18.2312 0
1 7.60196 19.244 0
1 8.18672 18.2312 0
1 8.77149 19.244 0
1 9.35625 18.2312 0
1 9.94102 19.244 0
1 10.5258 18.2312 0
1 11.1106 19.244 0
1 11.6953 18.2312 0
1 12.2801 19.244 0
1 12.8648 18.2312 0
1 13.4496 19.244 0
1 14.0344 18.2312 0
1 14.6191 19.244 0
1 15.2039 18.2312 0
1 15.7887 19.244 0
1 16.3734 18.2312 0
1 16.9582 19.244 0
1 17.543 18.2312 0
1 18.1277 19.244 0
1 18.7125 18.2312 0
1 19.2973 19.244 0
1 19.882 18.2312 0
1 20.4668 19.244 0
1 21.0516 18.2312 0
1 21.6363 19.244 0
1 22.2211 18.2312 0
1 22.8059 19.244 0
1 23.3906 18.2312 0
1 23.9754 19.244 0
1 24.5602 18.2312 0
1 25.1449 19.244 0
1 25.7297 18.2312 0
1 26.3145 19.244 0
1 26.8992 18.2312 0
1 27.484 19.244 0
1 28.0688 18.2312 0
1 28.6535 19.244 0
1 29.2383 18.2312 0
1 29.8231 19.244 0
1 30.4078 18.2312 0
1 30.9926 19.244 0
1 31.5774 18.2312 0
1 32.1621 19.244 0
1 32.7469 18.2312 0
1 33.3317 19.244 0
1 33.9164 18.2312 0
1 34.5012 19.244 0
1 35.086 18.2312 0
1 35.6707 19.244 0
1 36.2555 18.2312 0
1 36.8402 19.244 0
1 37.425 18.2312 0
1 38.0098 19.244 0
1 38.5945 18.2312 0
1 39.1793 19.244 0
1 39.7641 18.2312 0
1 40.3488 19.244 0
1 40.9336 18.2312 0
1 41.5184 19.244 0
1 42.1031 18.2312 0
1 42.6879 19.244 0
1 43.2727 18.2312 0
1 43.8574 19.244 0
1 44.4422 18.2312 0
1 45.027 19.244 0
1 45.6117 18.2312 0
1 46.1965 19.244 0
1 0 20.2569 0
1 0.584766 21.2697 0
1 1.16953 20.2569 0
1 1.7543 21.2697 0
1 2.33906 20.2569 0
1 2.92383 21.2697 0
1 3.5086 20.2569 0
1 4.09336 21.2697 0
1 4.67813 20.2569 0
1 5.26289 21.2697 0
1 5.84766 20.2569 0
1 6.43242 21.2697 0
1 7.01719 20.2569 0
1 7.60196 21.2697 0
1 8.18672 20.2569 0
1 8.77149 21.2697 0
1 9.35625 20.2569 0
1 9.94102 21.2697 0
1 10.5258 20.2569 0
1 11.1106 21.2697 0
1 11.6953 20.2569 0
1 12.2801 21.2697 0
1 12.8648 20.2569 0
1 13.4496 21.2697 0
1 14.0344 20.2569 0
1 14.6191 21.2697 0
1 15.2039 20.2569 0
1 15.7887 21.2697 0
1 16.3734 20.2569 0
1 16.9582 21.2697 0
1 17.543 20.2569 0
1 18.1277 21.2697 0
1 18.7125 20.2569 0
1 19.2973 21.2697 0
1 19.882 20.2569 0
1 20.4668 21.2697 0
1 21.0516 20.2569 0
1 21.6363 21.2697 0
1 22.2211 20.2569 0
1 22.8059 21.2697 0
1 23.3906 20.2569 0
1 23.9754 21.2697 0
1 24.5602 20.2569 0
1 25.1449 21.2697 0
1 25.7297 20.2569 0
1 26.3145 21.2697 0
1 26.8992 20.2569 0
1 27.484 21.2697 0
1 28.0688 20.2569 0
1 28.6535 21.2697 0
1 29.2383 20.2569 0
1 29.8231 21.2697 0
1 30.4078 20.2569 0
1 30.9926 21.2697 0
1 31.5774 20.2569 0
1 32.1621 21.2697 0
1 32.7469 20.2569 0
1 33.3317 21.2697 0
1 33.9164 20.2569 0
1 34.5012 21.2697 0
1 35.086 20.2569 0
1 35.6707 21.2697 0
1 36.2555 20.2569 0
1 36.8402 21.2697 0
1 37.425 20.2569 0
1 38.0098 21.2697 0
1 38.5945 20.2569 0
1 39.1793 21.2697 0
1 39.7641 20.2569 0
1 40.3488 21.2697 0
1 40.9336 20.2569 0
1 41.5184 21.2697 0
1 42.1031 20.2569 0
1 42.6879 21.2697 0
1 43.2727 20.2569 0
1 43.8574 21.2697 0
1 44.4422 20.2569 0
1 45.027 21.2697 0
1 45.6117 20.2569 0
1 46.1965 21.2697 0
1 0 22.2826 0
1 0.584766 23.2954 0
1 1.16953 22.2826 0
1 1.7543 23.2954 0
1 2.33906 22.2826 0
1 2.92383 23.2954 0
1 3.5086 22.2826 0
1 4.09336 23.2954 0
1 4.67813 22.2826 0
1 5.26289 23.2954 0
1 5.84766 22.2826 0
1 6.43242 23.2954 0
1 7.01719 22.2826 0
1 7.60196 23.2954 0
1 8.18672 22.2826 0
1 8.77149 23.2954 0
1 9.35625 22.2826 0
1 9.94102 23.2954 0
1 10.5258 22.2826 0
1 11.1106 23.2954 0
1 11.6953 22.2826 0
1 12.2801 23.2954 0
1 12.8648 22.2826 0
1 13.4496 23.2954 0
1 14.0344 22.2826 0
1 14.6191 23.2954 0
1 15.2039 22.2826 0
1 15.7887 23.2954 0
1 16.3734 22.2826 0
1 16.9582 23.2954 0
1 17.543 22.2826 0
1 18.1277 23.2954 0
1 18.7125 22.2826 0
1 19.2973 23.2954 0
1 19.882 22.2826 0
1 20.4668 23.2954 0
1 21.0516 22.2826 0
1 21.6363 23.2954 0
1 22.2211 22.2826 0
1 22.8059 23.2954 0
1 23.3906 22.2826 0
1 23.9754 23.2954 0
1 24.5602 22.2826 0
1 25.1449 23.2954 0
1 25.7297 22.2826 0
1 26.3145 23.2954 0
1 26.8992 22.2826 0
1 27.484 23.2954 0
1 28.0688 22.2826 0
1 28.6535 23.2954 0
1 29.2383 22.2826 0
1 29.8231 23.2954 0
1 30.4078 22.2826 0
1 30.9926 23.2954 0
1 31.5774 22.2826 0
1 32.1621 23.2954 0
1 32.7469 22.2826 0
1 33.3317 23.2954 0
1 33.9164 22.2826 0
1 34.5012 23.2954 0
1 35.086 22.2826 0
1 35.6707 23.2954 0
1 36.2555 22.2826 0
1 36.8402 23.2954 0
1 37.425 22.2826 0
1 38.0098 23.2954 0
1 38.5945 22.2826 0
1 39.1793 23.2954 0
1 39.7641 22.2826 0
1 40.3488 23.2954 0
1 40.9336 22.2826 0
1 41.5184 23.2954 0
1 42.1031 22.2826 0
1 42.6879 23.2954 0
1 43.2727 22.2826 0
1 43.8574 23.2954 0
1 44.4422 22.2826 0
1 45.027 23.2954 0
1 45.6117 22.2826 0
1 46.1965 23.2954 0
1 0 24.3083 0
1 0.584766 25.3211 0
1 1.16953 24.3083 0
1 1.7543 25.3211 0
1 2.33906 24.3083 0
1 2.92383 25.3211 0
1 3.5086 24.3083 0
1 4.09336 25.3211 0
1 4.67813 24.3083 0
1 5.26289 25.3211 0
1 5.84766 24.3083 0
1 6.43242 25.3211 0
1 7.01719 24.3083 0
1 7.60196 25.3211 0
1 8.18672 24.3083 0
1 8.77149 25.3211 0
1 9.35625 24.3083 0
1 9.94102 25.3211 0
1 10.5258 24.3083 0
1 11.1106 25.3211 0
1 11.6953 24.3083 0
1 12.2801 25.3211 0
1 12.8648 24.3083 0
1 13.4496 25.3211 0
1 14.0344 24.3083 0
1 14.6191 25.3211 0
1 15.2039 24.3083 0
1 15.7887 25.3211 0
1 16.3734 24.3083 0
1 16.9582 25.3211 0
1 17.543 24.3083 0
1 18.1277 25.3211 0
1 18.7125 24.3083 0
1 19.2973 25.3211 0
1 19.882 24.3083 0
1 20.4668 25.3211 0
1 21.0516 24.3083 0
1 21.6363 25.3211 0
1 22.2211 24.3083 0
1 22.8059 25.3211 0
1 23.3906 24.3083 0
1 23.9754 25.3211 0
1 24.5602 24.3083 0
1 25.1449 25.3211 0
1 25.7297 24.3083 0
1 26.3145 25.3211 0
1 26.8992 24.3083 0
1 27.484 25.3211 0
1 28.0688 24.3083 0
1 28.6535 25.3211 0
1 29.2383 24.3083 0
1 29.8231 25.3211 0
1 30.4078 24.3083 0
1 30.9926 25.3211 0
1 31.5774 24.3083 0
1 32.1621 25.3211 0
1 32.7469 24.3083 0
1 33.3317 25.3211 0
1 33.9164 24.3083 0
1 34.5012 25.3211 0
1 35.086 24.3083 0
1 35.6707 25.3211 0
1 36.2555 24.3083 0
1 36.8402 25.3211 0
1 37.425 24.3083 0
1 38.0098 25.3211 0
1 38.5945 24.3083 0
1 39.1793 25.3211 0
1 39.7641 24.3083 0
1 40.3488 25.3211 0
1 40.9336 24.3083 0
1 41.5184 25.3211 0
1 42.1031 24.3083 0
1 42.6879 25.3211 0
1 43.2727 24.3083 0
1 43.8574 25.3211 0
1 44.4422 24.3083 0
1 45.027 25.3211 0
1 45.6117 24.3083 0
1 46.1965 25.3211 0
1 0 26.3339 0
1 0.584766 27.3468 0
1 1.16953 26.3339 0
1 1.7543 27.3468 0
1 2.33906 26.3339 0
1 2.92383 27.3468 0
1 3.5086 26.3339 0
1 4.09336 27.3468 0
1 4.67813 26.3339 0
1 5.26289 27.3468 0
1 5.84766 26.3339 0
1 6.43242 27.3468 0
1 7.01719 26.3339 0
1 7.60196 27.3468 0
1 8.18672 26.3339 0
1 8.77149 27.3468 0
1 9.35625 26.3339 0
1 9.94102 27.3468 0
1 10.5258 26.3339 0
1 11.1106 27.3468 0
1 11.6953 26.3339 0
1 12.2801 27.3468 0
1 12.8648 26.3339 0
1 13.4496 27.3468 0
1 14.0344 26.3339 0
1 14.6191 27.3468 0
1 15.2039 26.3339 0
1 15.7887 27.3468 0
1 16.3734 26.3339 0
1 16.9582 27.3468 0
1 17.543 26.3339 0
1 18.1277 27.3468 0
1 18.7125 26.3339 0
1 19.2973 27.3468 0
1 19.882 26.3339 0
1 20.4668 27.3468 0
1 21.0516 26.3339 0
1 21.6363 27.3468 0
1 22.2211 26.3339 0
1 22.8059 27.3468 0
1 23.3906 26.3339 0
1 23.9754 27.3468 0
1 24.5602 26.3339 0
1 25.1449 27.3468 0
1 25.7297 26.3339 0
1 26.3145 27.3468 0
1 26.8992 26.3339 0
1 27.484 27.3468 0
1 28.0688 26.3339 0
1 28.6535 27.3468 0
1 29.2383 26.3339 0
1 29.8231 27.3468 0
1 30.4078 26.3339 0
1 30.9926 27.3468 0
1 31.5774 26.3339 0
1 32.1621 27.3468 0
1 32.7469 26.3339 0
1 33.3317 27.3468 0
1 33.9164 26.3339 0
1 34.5012 27.3468 0
1 35.086 26.3339 0
1 35.6707 27.3468 0
1 36.2555 26.3339 0
1 36.8402 27.3468 0
1 37.425 26.3339 0
1 38.0098 27.3468 0
1 38.5945 26.3339 0
1 39.1793 27.3468 0
1 39.7641 26.3339 0
1 40.3488 27.3468 0
1 40.9336 26.3339 0
1 41.5184 27.3468 0
1 42.1031 26.3339 0
1 42.6879 27.3468 0
1 43.2727 26.3339 0
1 43.8574 27.3468 0
1 44.4422 26.3339 0
1 45.027 27.3468 0
1 45.6117 26.3339 0
1 46.1965 27.3468 0
1 0 28.3596 0
1 0.584766 29.3725 0
1 1.16953 28.3596 0
1 1.7543 29.3725 0
1 2.33906 28.3596 0
1 2.92383 29.3725 0
1 3.5086 28.3596 0
1 4.09336 29.3725 0
1 4.67813 28.3596 0
1 5.26289 29.3725 0
1 5.84766 28.3596 0
1 6.43242 29.3725 0
1 7.01719 28.3596 0
1 7.60196 29.3725 0
1 8.18672 28.3596 0
1 8.77149 29.3725 0
1 9.35625 28.3596 0
1 9.94102 29.3725 0
1 10.5258 28.3596 0
1 11.1106 29.3725 0
1 11.6953 28.3596 0
1 12.2801 29.3725 0
1 12.8648 28.3596 0
1 13.4496 29.3725 0
1 14.0344 28.3596 0
1 14.6191 29.3725 0
1 15.2039 28.3596 0
1 15.7887 29.3725 0
1 16.3734 28.3596 0
1 16.9582 29.3725 0
1 17.543 28.3596 0
1 18.1277 29.3725 0
1 18.7125 28.3596 0
1 19.2973 29.3725 0
1 19.882 28.3596 0
1 20.4668 29.3725 0
1 21.0516 28.3596 0
1 21.6363 29.3725 0
1 22.2211 28.3596 0
1 22.8059 29.3725 0
1 23.3906 28.3596 0
1 23.9754 29.3725 0
1 24.5602 28.3596 0
1 25.1449 29.3725 0
1 25.7297 28.3596 0
1 26.3145 29.3725 0
1 26.8992 28.3596 0
1 27.484 29.3725 0
1 28.0688 28.3596 0
1 28.6535 29.3725 0
1 29.2383 28.3596 0
1 29.8231 29.3725 0
1 30.4078 28.3596 0
1 30.9926 29.3725 0
1 31.5774 28.3596 0
1 32.1621 29.3725 0
1 32.7469 28.3596 0
1 33.3317 29.3725 0
1 33.9164 28.3596 0
1 34.5012 29.3725 0
1 35.086 28.3596 0
1 35.6707 29.3725 0
1 36.2555 28.3596 0
1 36.8402 29.3725 0
1 37.425 28.3596 0
1 38.0098 29.3725 0
1 38.5945 28.3596 0
1 39.1793 29.3725 0
1 39.7641 28.3596 0
1 40.3488 29.3725 0
1 40.9336 28.3596 0
1 41.5184 29.3725 0
1 42.1031 28.3596 0
1 42.6879 29.3725 0
1 43.2727 28.3596 0
1 43.8574 29.3725 0
1 44.4422 28.3596 0
1 45.027 29.3725 0
1 45.6117 28.3596 0
1 46.1965 29.3725 0
1 0 30.3853 0
1 0.584766 31.3982 0
1 1.16953 30.3853 0
1 1.7543 31.3982 0
1 2.33906 30.3853 0
1 2.92383 31.3982 0
1 3.5086 30.3853 0
1 4.09336 31.3982 0
1 4.67813 30.3853 0
1 5.26289 31.3982 0
1 5.84766 30.3853 0
1 6.43242 31.3982 0
1 7.01719 30.3853 0
1 7.60196 31.3982 0
1 8.18672 30.3853 0
1 8.77149 31.3982 0
1 9.35625 30.3853 0
1 9.94102 31.3982 0
1 10.5258 30.3853 0
1 11.1106 31.3982 0
1 11.6953 30.3853 0
1 12.2801 31.3982 0
1 12.8648 30.3853 0
1 13.4496 31.3982 0
1 14.0344 30.3853 0
1 14.6191 31.3982 0
1 15.2039 30.3853 0
1 15.7887 31.3982 0
1 16.3734 30.3853 0
1 16.9582 31.3982 0
1 17.543 30.3853 0
1 18.1277 31.3982 0
1 18.7125 30.3853 0
1 19.2973 31.3982 0
1 19.882 30.3853 0
1 20.4668 31.3982 0
1 21.0516 30.3853 0
1 21.6363 31.3982 0
1 22.2211 30.3853 0
1 22.8059 31.3982 0
1 23.3906 30.3853 0
1 23.9754 31.3982 0
1 24.5602 30.3853 0
1 25.1449 31.3982 0
1 25.7297 30.3853 0
1 26.3145 31.3982 0
1 26.8992 30.3853 0
1 27.484 31.3982 0
1 28.0688 30.3853 0
1 28.6535 31.3982 0
1 29.2383 30.3853 0
1 29.8231 31.3982 0
1 30.4078 30.3853 0
1 30.9926 31.3982 0
1 31.5774 30.3853 0
1 32.1621 31.3982 0
1 32.7469 30.3853 0
1 33.3317 31.3982 0
1 33.9164 30.3853 0
1 34.5012 31.3982 0
1 35.086 30.3853 0
1 35.6707 31.3982 0
1 36.2555 30.3853 0
1 36.8402 31.3982 0
1 37.425 30.3853 0
1 38.0098 31.3982 0
1 38.5945 30.3853 0
1 39.1793 31.3982 0
1 39.7641 30.3853 0
1 40.3488 31.3982 0
1 40.9336 30.3853 0
1 41.5184 31.3982 0
1 42.1031 30.3853 0
1 42.6879 31.3982 0
1 43.2727 30.3853 0
1 43.8574 31.3982 0
1 44.4422 30.3853 0
1 45.027 31.3982 0
1 45.6117 30.3853 0
1 46.1965 31.3982 0
1 0 32.411 0
1 0.584766 33.4239 0
1 1.16953 32.411 0
1 1.7543 33.4239 0
1 2.33906 32.411 0
1 2.92383 33.4239 0
1 3.5086 32.411 0
1 4.09336 33.4239 0
1 4.67813 32.411 0
1 5.26289 33.4239 0
1 5.84766 32.411 0
1 6.43242 33.4239 0
1 7.01719 32.411 0
1 7.60196 33.4239 0
1 8.18672 32.411 0
1 8.77149 33.4239 0
1 9.35625 32.411 0
1 9.94102 33.4239 0
1 10.5258 32.411 0
1 11.1106 33.4239 0
1 11.6953 32.411 0
1 12.2801 33.4239 0
1 12.8648 32.411 0
1 13.4496 33.4239 0
1 14.0344 32.411 0
1 14.6191 33.4239 0
1 15.2039 32.411 0
1 15.7887 33.4239 0
1 16.3734 32.411 0
1 16.9582 33.4239 0
1 17.543 32.411 0
1 18.1277 33.4239 0
1 18.7125 32.411 0
1 19.2973 33.4239 0
1 19.882 32.411 0
1 20.4668 33.4239 0
1 21.0516 32.411 0
1 21.6363 33.4239 0
1 22.2211 32.411 0
1 22.8059 33.4239 0
1 23.3906 32.411 0
1 23.9754 33.4239 0
1 24.5602 32.411 0
1 25.1449 33.4239 0
1 25.7297 32.411 0
1 26.3145 33.4239 0
1 26.8992 32.411 0
1 27.484 33.4239 0
1 28.0688 32.411 0
1 28.6535 33.4239 0
1 29.2383 32.411 0
1 29.8231 33.4239 0
1 30.4078 32.411 0
1 30.9926 33.4239 0
1 31.5774 32.411 0
1 32.1621 33.4239 0
1 32.7469 32.411 0
1 33.3317 33.4239 0
1 33.9164 32.411 0
1 34.5012 33.4239 0
1 35.086 32.411 0
1 35.6707 33.4239 0
1 36.2555 32.411 0
1 36.8402 33.4239 0
1 37.425 32.411 0
1 38.0098 33.4239 0
1 38.5945 32.411 0
1 39.1793 33.4239 0
1 39.7641 32.411 0
1 40.3488 33.4239 0
1 40.9336 32.411 0
1 41.5184 33.4239 0
1 42.1031 32.411 0
1 42.6879 33.4239 0
1 43.2727 32.411 0
1 43.8574 33.4239 0
1 44.4422 32.411 0
1 45.027 33.4239 0
1 45.6117 32.411 0
1 46.1965 33.4239 0
1 0 34.4367 0
1 0.584766 35.4495 0
1 1.16953 34.4367 0
1 1.7543 35.4495 0
1 2.33906 34.4367 0
1 2.92383 35.4495 0
1 3.5086 34.4367 0
1 4.09336 35.4495 0
1 4.67813 34.4367 0
1 5.26289 35.4495 0
1 5.84766 34.4367 0
1 6.43242 35.4495 0
1 7.01719 34.4367 0
1 7.60196 35.4495 0
1 8.18672 34.4367 0
1 8.77149 35.4495 0
1 9.35625 34.4367 0
1 9.94102 35.4495 0
1 10.5258 34.4367 0
1 11.1106 35.4495 0
1 11.6953 34.4367 0
1 12.2801 35.4495 0
1 12.8648 34.4367 0
1 13.4496 35.4495 0
1 14.0344 34.4367 0
1 14.6191 35.4495 0
1 15.2039 34.4367 0
1 15.7887 35.4495 0
1 16.3734 34.4367 0
1 16.9582 35.4495 0
1 17.543 34.4367 0
1 18.1277 35.4495 0
1 18.7125 34.4367 0
1 19.2973 35.4495 0
1 19.882 34.4367 0
1 20.4668 35.4495 0
1 21.0516 34.4367 0
1 21.6363 35.4495 0
1 22.2211 34.4367 0
1 22.8059 35.4495 0
1 23.3906 34.4367 0
1 23.9754 35.4495 0
1 24.5602 34.4367 0
1 25.1449 35.4495 0
1 25.7297 34.4367 0
1 26.3145 35.4495 0
1 26.8992 34.4367 0
1 27.484 35.4495 0
1 28.0688 34.4367 0
1 28.6535 35.4495 0
1 29.2383 34.4367 0
1 29.8231 35.4495 0
1 30.4078 34.4367 0
1 30.9926 35.4495 0
1 31.5774 34.4367 0
1 32.1621 35.4495 0
1 32.7469 34.4367 0
1 33.3317 35.4495 0
1 33.9164 34.4367 0
1 34.5012 35.4495 0
1 35.086 34.4367 0
1 35.6707 35.4495 0
1 36.2555 34.4367 0
1 36.8402 35.4495 0
1 37.425 34.4367 0
1 38.0098 35.4495 0
1 38.5945 34.4367 0
1 39.1793 35.4495 0
1 39.7641 34.4367 0
1 40.3488 35.4495 0
1 40.9336 34.4367 0
1 41.5184 35.4495 0
1 42.1031 34.4367 0
1 42.6879 35.4495 0
1 43.2727 34.4367 0
1 43.8574 35.4495 0
1 44.4422 34.4367 0
1 45.027 35.4495 0
1 45.6117 34.4367 0
1 46.1965 35.4495 0
1 0 36.4624 0
1 0.584766 37.4752 0
1 1.16953 36.4624 0
1 1.7543 37.4752 0
1 2.33906 36.4624 0
1 2.92383 37.4752 0
1 3.5086 36.4624 0
1 4.09336 37.4752 0
1 4.67813 36.4624 0
1 5.26289 37.4752 0
1 5.84766 36.4624 0
1 6.43242 37.4752 0
1 7.01719 36.4624 0
1 7.60196 37.4752 0
1 8.18672 36.4624 0
1 8.77149 37.4752 0
1 9.35625 36.4624 0
1 9.94102 37.4752 0
1 10.5258 36.4624 0
1 11.1106 37.4752 0
1 11.6953 36.4624 0
1 12.2801 37.4752 0
1 12.8648 36.4624 0
1 13.4496 37.4752 0
1 14.0344 36.4624 0
1 14.6191 37.4752 0
1 15.2039 36.4624 0
1 15.7887 37.4752 0
1 16.3734 36.4624 0
1 16.9582 37.4752 0
1 17.543 36.4624 0
1 18.1277 37.4752 0
1 18.7125 36.4624 0
1 19.2973 37.4752 0
1 19.882 36.4624 0
1 20.4668 37.4752 0
1 21.0516 36.4624 0
1 21.6363 37.4752 0
1 22.2211 36.4624 0
1 22.8059 37.4752 0
1 23.3906 36.4624 0
1 23.9754 37.4752 0
1 24.5602 36.4624 0
1 25.1449 37.4752 0
1 25.7297 36.4624 0
1 26.3145 37.4752 0
1 26.8992 36.4624 0
1 27.484 37.4752 0
1 28.0688 36.4624 0
1 28.6535 37.4752 0
1 29.2383 36.4624 0
1 29.8231 37.4752 0
1 30.4078 36.4624 0
1 30.9926 37.4752 0
1 31.5774 36.4624 0
1 32.1621 37.4752 0
1 32.7469 36.4624 0
1 33.3317 37.4752 0
1 33.9164 36.4624 0
1 34.5012 37.4752 0
1 35.086 36.4624 0
1 35.6707 37.4752 0
1 36.2555 36.4624 0
1 36.8402 37.4752 0
1 37.425 36.4624 0
1 38.0098 37.4752 0
1 38.5945 36.4624 0
1 39.1793 37.4752 0
1 39.7641 36.4624 0
1 40.3488 37.4752 0
1 40.9336 36.4624 0
1 41.5184 37.4752 0
1 42.1031 36.4624 0
1 42.6879 37.4752 0
1 43.2727 36.4624 0
1 43.8574 37.4752 0
1 44.4422 36.4624 0
1 45.027 37.4752 0
1 45.6117 36.4624 0
1 46.1965 37.4752 0
1 0 38.4881 0
1 0.584766 39.5009 0
1 1.16953 38.4881 0
1 1.7543 39.5009 0
1 2.33906 38.4881 0
1 2.92383 39.5009 0
1 3.5086 38.4881 0
1 4.09336 39.5009 0
1 4.67813 38.4881 0
1 5.26289 39.5009 0
1 5.84766 38.4881 0