1600
Atoms. Timestep: 0
1 0 0 0
1 0.524336 0.908177 0
1 1.04867 0 0
1 1.57301 0.908177 0
1 2.09735 0 0
1 2.62168 0.908177 0
1 3.14602 0 0
1 3.67036 0.908177 0
1 4.19469 0 0
1 4.71903 0.908177 0
1 5.24336 0 0
1 5.7677 0.908177 0
1 6.29204 0 0
1 6.81637 0.908177 0
1 7.34071 0 0
1 7.86505 0.908177 0
1 8.38938 0 0
1 8.91372 0.908177 0
1 9.43806 0 0
1 9.96239 0.908177 0
1 10.4867 0 0
1 11.0111 0.908177 0
1 11.5354 0 0
1 12.0597 0.908177 0
1 12.5841 0 0
1 13.1084 0.908177 0
1 13.6327 0 0
1 14.1571 0.908177 0
1 14.6814 0 0
1 15.2058 0.908177 0
1 15.7301 0 0
1 16.2544 0.908177 0
1 16.7788 0 0
1 17.3031 0.908177 0
1 17.8274 0 0
1 18.3518 0.908177 0
1 18.8761 0 0
1 19.4004 0.908177 0
1 19.9248 0 0
1 20.4491 0.908177 0
1 20.9735 0 0
1 21.4978 0.908177 0
1 22.0221 0 0
1 22.5465 0.908177 0
1 23.0708 0 0
1 23.5951 0.908177 0
1 24.1195 0 0
1 24.6438 0.908177 0
1 25.1681 0 0
1 25.6925 0.908177 0
1 26.2168 0 0
1 26.7412 0.908177 0
1 27.2655 0 0
1 27.7898 0.908177 0
1 28.3142 0 0
1 28.8385 0.908177 0
1 29.3628 0 0
1 29.8872 0.908177 0
1 30.4115 0 0
1 30.9358 0.908177 0
1 31.4602 0 0
1 31.9845 0.908177 0
1 32.5089 0 0
1 33.0332 0.908177 0
1 33.5575 0 0
1 34.0819 0.908177 0
1 34.6062 0 0
1 35.1305 0.908177 0
1 35.6549 0 0
1 36.1792 0.908177 0
1 36.7036 0 0
1 37.2279 0.908177 0
1 37.7522 0 0
1 38.2766 0.908177 0
1 38.8009 0 0
1 39.3252 0.908177 0
1 39.8496 0 0
1 40.3739 0.908177 0
1 40.8982 0 0
1 41.4226 0.908177 0
1 0 1.81635 0
1 0.524336 2.72453 0
1 1.04867 1.81635 0
1 1.57301 2.72453 0
1 2.09735 1.81635 0
1 2.62168 2.72453 0
1 3.14602 1.81635 0
1 3.67036 2.72453 0
1 4.19469 1.81635 0
1 4.71903 2.72453 0
1 5.24336 1.81635 0
1 5.7677 2.72453 0
1 6.29204 1.81635 0
1 6.81637 2.72453 0
1 7.34071 1.81635 0
1 7.86505 2.72453 0
1 8.38938 1.81635 0
1 8.91372 2.72453 0
1 9.43806 1.81635 0
1 9.96239 2.72453 0
1 10.4867 1.81635 0
1 11.0111 2.72453 0
1 11.5354 1.81635 0
1 12.0597 2.72453 0
1 12.5841 1.81635 0
1 13.1084 2.72453 0
1 13.6327 1.81635 0
1 14.1571 2.72453 0
1 14.6814 1.81635 0
1 15.2058 2.72453 0
1 15.7301 1.81635 0
1 16.2544 2.72453 0
1 16.7788 1.81635 0
1 17.3031 2.72453 0
1 17.8274 1.81635 0
1 18.3518 2.72453 0
1 18.8761 1.81635 0
1 19.4004 2.72453 0
1 19.9248 1.81635 0
1 20.4491 2.72453 0
1 20.9735 1.81635 0
1 21.4978 2.72453 0
1 22.0221 1.81635 0
1 22.5465 2.72453 0
1 23.0708 1.81635 0
1 23.5951 2.72453 0
1 24.1195 1.81635 0
1 24.6438 2.72453 0
1 25.1681 1.81635 0
1 25.6925 2.72453 0
1 26.2168 1.81635 0
1 26.7412 2.72453 0
1 27.2655 1.81635 0
1 27.7898 2.72453 0
1 28.3142 1.81635 0
1 28.8385 2.72453 0
1 29.3628 1.81635 0
1 29.8872 2.72453 0
1 30.4115 1.81635 0
1 30.9358 2.72453 0
1 31.4602 1.81635 0
1 31.9845 2.72453 0
1 32.5089 1.81635 0
1 33.0332 2.72453 0
1 33.5575 1.81635 0
1 34.0819 2.72453 0
1 34.6062 1.81635 0
1 35.1305 2.72453 0
1 35.6549 1.81635 0
1 36.1792 2.72453 0
1 36.7036 1.81635 0
1 37.2279 2.72453 0
1 37.7522 1.81635 0
1 38.2766 2.72453 0
1 38.8009 1.81635 0
1 39.3252 2.72453 0
1 39.8496 1.81635 0
1 40.3739 2.72453 0
1 40.8982 1.81635 0
1 41.4226 2.72453 0
1 0 3.63271 0
1 0.524336 4.54089 0
1 1.04867 3.63271 0
1 1.57301 4.54089 0
1 2.09735 3.63271 0
1 2.62168 4.54089 0
1 3.14602 3.63271 0
1 3.67036 4.54089 0
1 4.19469 3.63271 0
1 4.71903 4.54089 0
1 5.24336 3.63271 0
1 5.7677 4.54089 0
1 6.29204 3.63271 0
1 6.81637 4.54089 0
1 7.34071 3.63271 0
1 7.86505 4.54089 0
1 8.38938 3.63271 0
1 8.91372 4.54089 0
1 9.43806 3.63271 0
1 9.96239 4.54089 0
1 10.4867 3.63271 0
1 11.0111 4.54089 0
1 11.5354 3.63271 0
1 12.0597 4.54089 0
1 12.5841 3.63271 0
1 13.1084 4.54089 0
1 13.6327 3.63271 0
1 14.1571 4.54089 0
1 14.6814 3.63271 0
1 15.2058 4.54089 0
1 15.7301 3.63271 0
1 16.2544 4.54089 0
1 16.7788 3.63271 0
1 17.3031 4.54089 0
1 17.8274 3.63271 0
1 18.3518 4.54089 0
1 18.8761 3.63271 0
1 19.4004 4.54089 0
1 19.9248 3.63271 0
1 20.4491 4.54089 0
1 20.9735 3.63271 0
1 21.4978 4.54089 0
1 22.0221 3.63271 0
1 22.5465 4.54089 0
1 23.0708 3.63271 0
1 23.5951 4.54089 0
1 24.1195 3.63271 0
1 24.6438 4.54089 0
1 25.1681 3.63271 0
1 25.6925 4.54089 0
1 26.2168 3.63271 0
1 26.7412 4.54089 0
1 27.2655 3.63271 0
1 27.7898 4.54089 0
1 28.3142 3.63271 0
1 28.8385 4.54089 0
1 29.3628 3.63271 0
1 29.8872 4.54089 0
1 30.4115 3.63271 0
1 30.9358 4.54089 0
1 31.4602 3.63271 0
1 31.9845 4.54089 0
1 32.5089 3.63271 0
1 33.0332 4.54089 0
1 33.5575 3.63271 0
1 34.0819 4.54089 0
1 34.6062 3.63271 0
1 35.1305 4.54089 0
1 35.6549 3.63271 0
1 36.1792 4.54089 0
1 36.7036 3.63271 0
1 37.2279 4.54089 0
1 37.7522 3.63271 0
1 38.2766 4.54089 0
1 38.8009 3.63271 0
1 39.3252 4.54089 0
1 39.8496 3.63271 0
1 40.3739 4.54089 0
1 40.8982 3.63271 0
1 41.4226 4.54089 0
1 0 5.44906 0
1 0.524336 6.35724 0
1 1.04867 5.44906 0
1 1.57301 6.35724 0
1 2.09735 5.44906 0
1 2.62168 6.35724 0
1 3.14602 5.44906 0
1 3.67036 6.35724 0
1 4.19469 5.44906 0
1 4.71903 6.35724 0
1 5.24336 5.44906 0
1 5.7677 6.35724 0
1 6.29204 5.44906 0
1 6.81637 6.35724 0
1 7.34071 5.44906 0
1 7.86505 6.35724 0
1 8.38938 5.44906 0
1 8.91372 6.35724 0
1 9.43806 5.44906 0
1 9.96239 6.35724 0
1 10.4867 5.44906 0
1 11.0111 6.35724 0
1 11.5354 5.44906 0
1 12.0597 6.35724 0
1 12.5841 5.44906 0
1 13.1084 6.35724 0
1 13.6327 5.44906 0
1 14.1571 6.35724 0
1 14.6814 5.44906 0
1 15.2058 6.35724 0
1 15.7301 5.44906 0
1 16.2544 6.35724 0
1 16.7788 5.44906 0
1 17.3031 6.35724 0
1 17.8274 5.44906 0
1 18.3518 6.35724 0
1 18.8761 5.44906 0
1 19.4004 6.35724 0
1 19.9248 5.44906 0
1 20.4491 6.35724 0
1 20.9735 5.44906 0
1 21.4978 6.35724 0
1 22.0221 5.44906 0
1 22.5465 6.35724 0
1 23.0708 5.44906 0
1 23.5951 6.35724 0
1 24.1195 5.44906 0
1 24.6438 6.35724 0
1 25.1681 5.44906 0
1 25.6925 6.35724 0
1 26.2168 5.44906 0
1 26.7412 6.35724 0
1 27.2655 5.44906 0
1 27.7898 6.35724 0
1 28.3142 5.44906 0
1 28.8385 6.35724 0
1 29.3628 5.44906 0
1 29.8872 6.35724 0
1 30.4115 5.44906 0
1 30.9358 6.35724 0
1 31.4602 5.44906 0
1 31.9845 6.35724 0
1 32.5089 5.44906 0
1 33.0332 6.35724 0
1 33.5575 5.44906 0
1 34.0819 6.35724 0
1 34.6062 5.44906 0
1 35.1305 6.35724 0
1 35.6549 5.44906 0
1 36.1792 6.35724 0
1 36.7036 5.44906 0
1 37.2279 6.35724 0
1 37.7522 5.44906 0
1 38.2766 6.35724 0
1 38.8009 5.44906 0
1 39.3252 6.35724 0
1 39.8496 5.44906 0
1 40.3739 6.35724 0
1 40.8982 5.44906 0
1 41.4226 6.35724 0
1 0 7.26542 0
1 0.524336 8.1736 0
1 1.04867 7.26542 0
1 1.57301 8.1736 0
1 2.09735 7.26542 0
1 2.62168 8.1736 0
1 3.14602 7.26542 0
1 3.67036 8.1736 0
1 4.19469 7.26542 0
1 4.71903 8.1736 0
1 5.24336 7.26542 0
1 5.7677 8.1736 0
1 6.29204 7.26542 0
1 6.81637 8.1736 0
1 7.34071 7.26542 0
1 7.86505 8.1736 0
1 8.38938 7.26542 0
1 8.91372 8.1736 0
1 9.43806 7.26542 0
1 9.96239 8.1736 0
1 10.4867 7.26542 0
1 11.0111 8.1736 0
1 11.5354 7.26542 0
1 12.0597 8.1736 0
1 12.5841 7.26542 0
1 13.1084 8.1736 0
1 13.6327 7.26542 0
1 14.1571 8.1736 0
1 14.6814 7.26542 0
1 15.2058 8.1736 0
1 15.7301 7.26542 0
1 16.2544 8.1736 0
1 16.7788 7.26542 0
1 17.3031 8.1736 0
1 17.8274 7.26542 0
1 18.3518 8.1736 0
1 18.8761 7.26542 0
1 19.4004 8.1736 0
1 19.9248 7.26542 0
1 20.4491 8.1736 0
1 20.9735 7.26542 0
1 21.4978 8.1736 0
1 22.0221 7.26542 0
1 22.5465 8.1736 0
1 23.0708 7.26542 0
1 23.5951 8.1736 0
1 24.1195 7.26542 0
1 24.6438 8.1736 0
1 25.1681 7.26542 0
1 25.6925 8.1736 0
1 26.2168 7.26542 0
1 26.7412 8.1736 0
1 27.2655 7.26542 0
1 27.7898 8.1736 0
1 28.3142 7.26542 0
1 28.8385 8.1736 0
1 29.3628 7.26542 0
1 29.8872 8.1736 0
1 30.4115 7.26542 0
1 30.9358 8.1736 0
1 31.4602 7.26542 0
1 31.9845 8.1736 0
1 32.5089 7.26542 0
1 33.0332 8.1736 0
1 33.5575 7.26542 0
1 34.0819 8.1736 0
1 34.6062 7.26542 0
1 35.1305 8.1736 0
1 35.6549 7.26542 0
1 36.1792 8.1736 0
1 36.7036 7.26542 0
1 37.2279 8.1736 0
1 37.7522 7.26542 0
1 38.2766 8.1736 0
1 38.8009 7.26542 0
1 39.3252 8.1736 0
1 39.8496 7.26542 0
1 40.3739 8.1736 0
1 40.8982 7.26542 0
1 41.4226 8.1736 0
1 0 9.08177 0
1 0.524336 9.98995 0
1 1.04867 9.08177 0
1 1.57301 9.98995 0
1 2.09735 9.08177 0
1 2.62168 9.98995 0
1 3.14602 9.08177 0
1 3.67036 9.98995 0
1 4.19469 9.08177 0
1 4.71903 9.98995 0
1 5.24336 9.08177 0
1 5.7677 9.98995 0
1 6.29204 9.08177 0
1 6.81637 9.98995 0
1 7.34071 9.08177 0
1 7.86505 9.98995 0
1 8.38938 9.08177 0
1 8.91372 9.98995 0
1 9.43806 9.08177 0
1 9.96239 9.98995 0
1 10.4867 9.08177 0
1 11.0111 9.98995 0
1 11.5354 9.08177 0
1 12.0597 9.98995 0
1 12.5841 9.08177 0
1 13.1084 9.98995 0
1 13.6327 9.08177 0
1 14.1571 9.98995 0
1 14.6814 9.08177 0
1 15.2058 9.98995 0
1 15.7301 9.08177 0
1 16.2544 9.98995 0
1 16.7788 9.08177 0
1 17.3031 9.98995 0
1 17.8274 9.08177 0
1 18.3518 9.98995 0
1 18.8761 9.08177 0
1 19.4004 9.98995 0
1 19.9248 9.08177 0
1 20.4491 9.98995 0
1 20.9735 9.08177 0
1 21.4978 9.98995 0
1 22.0221 9.08177 0
1 22.5465 9.98995 0
1 23.0708 9.08177 0
1 23.5951 9.98995 0
1 24.1195 9.08177 0
1 24.6438 9.98995 0
1 25.1681 9.08177 0
1 25.6925 9.98995 0
1 26.2168 9.08177 0
1 26.7412 9.98995 0
1 27.2655 9.08177 0
1 27.7898 9.98995 0
1 28.3142 9.08177 0
1 28.8385 9.98995 0
1 29.3628 9.08177 0
1 29.8872 9.98995 0
1 30.4115 9.08177 0
1 30.9358 9.98995 0
1 31.4602 9.08177 0
1 31.9845 9.98995 0
1 32.5089 9.08177 0
1 33.0332 9.98995 0
1 33.5575 9.08177 0
1 34.0819 9.98995 0
1 34.6062 9.08177 0
1 35.1305 9.98995 0
1 35.6549 9.08177 0
1 36.1792 9.98995 0
1 36.7036 9.08177 0
1 37.2279 9.98995 0
1 37.7522 9.08177 0
1 38.2766 9.98995 0
1 38.8009 9.08177 0
1 39.3252 9.98995 0
1 39.8496 9.08177 0
1 40.3739 9.98995 0
1 40.8982 9.08177 0
1 41.4226 9.98995 0
1 0 10.8981 0
1 0.524336 11.8063 0
1 1.04867 10.8981 0
1 1.57301 11.8063 0
1 2.09735 10.8981 0
1 2.62168 11.8063 0
1 3.14602 10.8981 0
1 3.67036 11.8063 0
1 4.19469 10.8981 0
1 4.71903 11.8063 0
1 5.24336 10.8981 0
1 5.7677 11.8063 0
1 6.29204 10.8981 0
1 6.81637 11.8063 0
1 7.34071 10.8981 0
1 7.86505 11.8063 0
1 8.38938 10.8981 0
1 8.91372 11.8063 0
1 9.43806 10.8981 0
1 9.96239 11.8063 0
1 10.4867 10.8981 0
1 11.0111 11.8063 0
1 11.5354 10.8981 0
1 12.0597 11.8063 0
1 12.5841 10.8981 0
1 13.1084 11.8063 0
1 13.6327 10.8981 0
1 14.1571 11.8063 0
1 14.6814 10.8981 0
1 15.2058 11.8063 0
1 15.7301 10.8981 0
1 16.2544 11.8063 0
1 16.7788 10.8981 0
1 17.3031 11.8063 0
1 17.8274 10.8981 0
1 18.3518 11.8063 0
1 18.8761 10.8981 0
1 19.4004 11.8063 0
1 19.9248 10.8981 0
1 20.4491 11.8063 0
1 20.9735 10.8981 0
1 21.4978 11.8063 0
1 22.0221 10.8981 0
1 22.5465 11.8063 0
1 23.0708 10.8981 0
1 23.5951 11.8063 0
1 24.1195 10.8981 0
1 24.6438 11.8063 0
1 25.1681 10.8981 0
1 25.6925 11.8063 0
1 26.2168 10.8981 0
1 26.7412 11.8063 0
1 27.2655 10.8981 0
1 27.7898 11.8063 0
1 28.3142 10.8981 0
1 28.8385 11.8063 0
1 29.3628 10.8981 0
1 29.8872 11.8063 0
1 30.4115 10.8981 0
1 30.9358 11.8063 0
1 31.4602 10.8981 0
1 31.9845 11.8063 0
1 32.5089 10.8981 0
1 33.0332 11.8063 0
1 33.5575 10.8981 0
1 34.0819 11.8063 0
1 34.6062 10.8981 0
1 35.1305 11.8063 0
1 35.6549 10.8981 0
1 36.1792 11.8063 0
1 36.7036 10.8981 0
1 37.2279 11.8063 0
1 37.7522 10.8981 0
1 38.2766 11.8063 0
1 38.8009 10.8981 0
1 39.3252 11.8063 0
1 39.8496 10.8981 0
1 40.3739 11.8063 0
1 40.8982 10.8981 0
1 41.4226 11.8063 0
1 0 12.7145 0
1 0.524336 13.6227 0
1 1.04867 12.7145 0
1 1.57301 13.6227 0
1 2.09735 12.7145 0
1 2.62168 13.6227 0
1 3.14602 12.7145 0
1 3.67036 13.6227 0
1 4.19469 12.7145 0
1 4.71903 13.6227 0
1 5.24336 12.7145 0
1 5.7677 13.6227 0
1 6.29204 12.7145 0
1 6.81637 13.6227 0
1 7.34071 12.7145 0
1 7.86505 13.6227 0
1 8.38938 12.7145 0
1 8.91372 13.6227 0
1 9.43806 12.7145 0
1 9.96239 13.6227 0
1 10.4867 12.7145 0
1 11.0111 13.6227 0
1 11.5354 12.7145 0
1 12.0597 13.6227 0
1 12.5841 12.7145 0
1 13.1084 13.6227 0
1 13.6327 12.7145 0
1 14.1571 13.6227 0
1 14.6814 12.7145 0
1 15.2058 13.6227 0
1 15.7301 12.7145 0
1 16.2544 13.6227 0
1 16.7788 12.7145 0
1 17.3031 13.6227 0
1 17.8274 12.7145 0
1 18.3518 13.6227 0
1 18.8761 12.7145 0
1 19.4004 13.6227 0
1 19.9248 12.7145 0
1 20.4491 13.6227 0
1 20.9735 12.7145 0
1 21.4978 13.6227 0
1 22.0221 12.7145 0
1 22.5465 13.6227 0
1 23.0708 12.7145 0
1 23.5951 13.6227 0
1 24.1195 12.7145 0
1 24.6438 13.6227 0
1 25.1681 12.7145 0
1 25.6925 13.6227 0
1 26.2168 12.7145 0
1 26.7412 13.6227 0
1 27.2655 12.7145 0
1 27.7898 13.6227 0
1 28.3142 12.7145 0
1 28.8385 13.6227 0
1 29.3628 12.7145 0
1 29.8872 13.6227 0
1 30.4115 12.7145 0
1 30.9358 13.6227 0
1 31.4602 12.7145 0
1 31.9845 13.6227 0
1 32.5089 12.7145 0
1 33.0332 13.6227 0
1 33.5575 12.7145 0
1 34.0819 13.6227 0
1 34.6062 12.7145 0
1 35.1305 13.6227 0
1 35.6549 12.7145 0
1 36.1792 13.6227 0
1 36.7036 12.7145 0
1 37.2279 13.6227 0
1 37.7522 12.7145 0
1 38.2766 13.6227 0
1 38.8009 12.7145 0
1 39.3252 13.6227 0
1 39.8496 12.7145 0
1 40.3739 13.6227 0
1 40.8982 12.7145 0
1 41.4226 13.6227 0
1 0 14.5308 0
1 0.524336 15.439 0
1 1.04867 14.5308 0
1 1.57301 15.439 0
1 2.09735 14.5308 0
1 2.62168 15.439 0
1 3.14602 14.5308 0
1 3.67036 15.439 0
1 4.19469 14.5308 0
1 4.71903 15.439 0
1 5.24336 14.5308 0
1 5.7677 15.439 0
1 6.29204 14.5308 0
1 6.81637 15.439 0
1 7.34071 14.5308 0
1 7.86505 15.439 0
1 8.38938 14.5308 0
1 8.91372 15.439 0
1 9.43806 14.5308 0
1 9.96239 15.439 0
1 10.4867 14.5308 0
1 11.0111 15.439 0
1 11.5354 14.5308 0
1 12.0597 15.439 0
1 12.5841 14.5308 0
1 13.1084 15.439 0
1 13.6327 14.5308 0
1 14.1571 15.439 0
1 14.6814 14.5308 0
1 15.2058 15.439 0
1 15.7301 14.5308 0
1 16.2544 15.439 0
1 16.7788 14.5308 0
1 17.3031 15.439 0
1 17.8274 14.5308 0
1 18.3518 15.439 0
1 18.8761 14.5308 0
1 19.4004 15.439 0
1 19.9248 14.5308 0
1 20.4491 15.439 0
1 20.9735 14.5308 0
1 21.4978 15.439 0
1 22.0221 14.5308 0
1 22.5465 15.439 0
1 23.0708 14.5308 0
1 23.5951 15.439 0
1 24.1195 14.5308 0
1 24.6438 15.439 0
1 25.1681 14.5308 0
1 25.6925 15.439 0
1 26.2168 14.5308 0
1 26.7412 15.439 0
1 27.2655 14.5308 0
1 27.7898 15.439 0
1 28.3142 14.5308 0
1 28.8385 15.439 0
1 29.3628 14.5308 0
1 29.8872 15.439 0
1 30.4115 14.5308 0
1 30.9358 15.439 0
1 31.4602 14.5308 0
1 31.9845 15.439 0
1 32.5089 14.5308 0
1 33.0332 15.439 0
1 33.5575 14.5308 0
1 34.0819 15.439 0
1 34.6062 14.5308 0
1 35.1305 15.439 0
1 35.6549 14.5308 0
1 36.1792 15.439 0
1 36.7036 14.5308 0
1 37.2279 15.439 0
1 37.7522 14.5308 0
1 38.2766 15.439 0
1 38.8009 14.5308 0
1 39.3252 15.439 0
1 39.8496 14.5308 0
1 40.3739 15.439 0
1 40.8982 14.5308 0
1 41.4226 15.439 0
1 0 16.3472 0
1 0.524336 17.2554 0
1 1.04867 16.3472 0
1 1.57301 17.2554 0
1 2.09735 16.3472 0
1 2.62168 17.2554 0
1 3.14602 16.3472 0
1 3.67036 17.2554 0
1 4.19469 16.3472 0
1 4.71903 17.2554 0
1 5.24336 16.3472 0
1 5.7677 17.2554 0
1 6.29204 16.3472 0
1 6.81637 17.2554 0
1 7.34071 16.3472 0
1 7.86505 17.2554 0
1 8.38938 16.3472 0
1 8.91372 17.2554 0
1 9.43806 16.3472 0
1 9.96239 17.2554 0
1 10.4867 16.3472 0
1 11.0111 17.2554 0
1 11.5354 16.3472 0
1 12.0597 17.2554 0
1 12.5841 16.3472 0
1 13.1084 17.2554 0
1 13.6327 16.3472 0
1 14.1571 17.2554 0
1 14.6814 16.3472 0
1 15.2058 17.2554 0
1 15.7301 16.3472 0
1 16.2544 17.2554 0
1 16.7788 16.3472 0
1 17.3031 17.2554 0
1 17.8274 16.3472 0
1 18.3518 17.2554 0
1 18.8761 16.3472 0
1 19.4004 17.2554 0
1 19.9248 16.3472 0
1 20.4491 17.2554 0
1 20.9735 16.3472 0
1 21.4978 17.2554 0
1 22.0221 16.3472 0
1 22.5465 17.2554 0
1 23.0708 16.3472 0
1 23.5951 17.2554 0
1 24.1195 16.3472 0
1 24.6438 17.2554 0
1 25.1681 16.3472 0
1 25.6925 17.2554 0
1 26.2168 16.3472 0
1 26.7412 17.2554 0
1 27.2655 16.3472 0
1 27.7898 17.2554 0
1 28.3142 16.3472 0
1 28.8385 17.2554 0
1 29.3628 16.3472 0
1 29.8872 17.2554 0
1 30.4115 16.3472 0
1 30.9358 17.2554 0
1 31.4602 16.3472 0
1 31.9845 17.2554 0
1 32.5089 16.3472 0
1 33.0332 17.2554 0
1 33.5575 16.3472 0
1 34.0819 17.2554 0
1 34.6062 16.3472 0
1 35.1305 17.2554 0
1 35.6549 16.3472 0
1 36.1792 17.2554 0
1 36.7036 16.3472 0
1 37.2279 17.2554 0
1 37.7522 16.3472 0
1 38.2766 17.2554 0
1 38.8009 16.3472 0
1 39.3252 17.2554 0
1 39.8496 16.3472 0
1 40.3739 17.2554 0
1 40.8982 16.3472 0
1 41.4226 17.2554 0
1 0 18.1635 0
1 0.524336 19.0717 0
1 1.04867 18.1635 0
1 1.57301 19.0717 0
1 2.09735 18.1635 0
1 2.62168 19.0717 0
1 3.14602 18.1635 0
1 3.67036 19.0717 0
1 4.19469 18.1635 0
1 4.71903 19.0717 0
1 5.24336 18.1635 0
1 5.7677 19.0717 0
1 6.29204 18.1635 0
1 6.81637 19.0717 0
1 7.34071 18.1635 0
1 7.86505 19.0717 0
1 8.38938 18.1635 0
1 8.91372 19.0717 0
1 9.43806 18.1635 0
1 9.96239 19.0717 0
1 10.4867 18.1635 0
1 11.0111 19.0717 0
1 11.5354 18.1635 0
1 12.0597 19.0717 0
1 12.5841 18.1635 0
1 13.1084 19.0717 0
1 13.6327 18.1635 0
1 14.1571 19.0717 0
1 14.6814 18.1635 0
1 15.2058 19.0717 0
1 15.7301 18.1635 0
1 16.2544 19.0717 0
1 16.7788 18.1635 0
1 17.3031 19.0717 0
1 17.8274 18.1635 0
1 18.3518 19.0717 0
1 18.8761 18.1635 0
1 19.4004 19.0717 0
1 19.9248 18.1635 0
1 20.4491 19.0717 0
1 20.9735 18.1635 0
1 21.4978 19.0717 0
1 22.0221 18.1635 0
1 22.5465 19.0717 0
1 23.0708 18.1635 0
1 23.5951 19.0717 0
1 24.1195 18.1635 0
1 24.6438 19.0717 0
1 25.1681 18.1635 0
1 25.6925 19.0717 0
1 26.2168 18.1635 0
1 26.7412 19.0717 0
1 27.2655 18.1635 0
1 27.7898 19.0717 0
1 28.3142 18.1635 0
1 28.8385 19.0717 0
1 29.3628 18.1635 0
1 29.8872 19.0717 0
1 30.4115 18.1635 0
1 30.9358 19.0717 0
1 31.4602 18.1635 0
1 31.9845 19.0717 0
1 32.5089 18.1635 0
1 33.0332 19.0717 0
1 33.5575 18.1635 0
1 34.0819 19.0717 0
1 34.6062 18.1635 0
1 35.1305 19.0717 0
1 35.6549 18.1635 0
1 36.1792 19.0717 0
1 36.7036 18.1635 0
1 37.2279 19.0717 0
1 37.7522 18.1635 0
1 38.2766 19.0717 0
1 38.8009 18.1635 0
1 39.3252 19.0717 0
1 39.8496 18.1635 0
1 40.3739 19.0717 0
1 40.8982 18.1635 0
1 41.4226 19.0717 0
1 0 19.9799 0
1 0.524336 20.8881 0
1 1.04867 19.9799 0
1 1.57301 20.8881 0
1 2.09735 19.9799 0
1 2.62168 20.8881 0
1 3.14602 19.9799 0
1 3.67036 20.8881 0
1 4.19469 19.9799 0
1 4.71903 20.8881 0
1 5.24336 19.9799 0
1 5.7677 20.8881 0
1 6.29204 19.9799 0
1 6.81637 20.8881 0
1 7.34071 19.9799 0
1 7.86505 20.8881 0
1 8.38938 19.9799 0
1 8.91372 20.8881 0
1 9.43806 19.9799 0
1 9.96239 20.8881 0
1 10.4867 19.9799 0
1 11.0111 20.8881 0
1 11.5354 19.9799 0
1 12.0597 20.8881 0
1 12.5841 19.9799 0
1 13.1084 20.8881 0
1 13.6327 19.9799 0
1 14.1571 20.8881 0
1 14.6814 19.9799 0
1 15.2058 20.8881 0
1 15.7301 19.9799 0
1 16.2544 20.8881 0
1 16.7788 19.9799 0
1 17.3031 20.8881 0
1 17.8274 19.9799 0
1 18.3518 20.8881 0
1 18.8761 19.9799 0
1 19.4004 20.8881 0
1 19.9248 19.9799 0
1 20.4491 20.8881 0
1 20.9735 19.9799 0
1 21.4978 20.8881 0
1 22.0221 19.9799 0
1 22.5465 20.8881 0
1 23.0708 19.9799 0
1 23.5951 20.8881 0
1 24.1195 19.9799 0
1 24.6438 20.8881 0
1 25.1681 19.9799 0
1 25.6925 20.8881 0
1 26.2168 19.9799 0
1 26.7412 20.8881 0
1 27.2655 19.9799 0
1 27.7898 20.8881 0
1 28.3142 19.9799 0
1 28.8385 20.8881 0
1 29.3628 19.9799 0
1 29.8872 20.8881 0
1 30.4115 19.9799 0
1 30.9358 20.8881 0
1 31.4602 19.9799 0
1 31.9845 20.8881 0
1 32.5089 19.9799 0
1 33.0332 20.8881 0
1 33.5575 19.9799 0
1 34.0819 20.8881 0
1 34.6062 19.9799 0
1 35.1305 20.8881 0
1 35.6549 19.9799 0
1 36.1792 20.8881 0
1 36.7036 19.9799 0
1 37.2279 20.8881 0
1 37.7522 19.9799 0
1 38.2766 20.8881 0
1 38.8009 19.9799 0
1 39.3252 20.8881 0
1 39.8496 19.9799 0
1 40.3739 20.8881 0
1 40.8982 19.9799 0
1 41.4226 20.8881 0
1 0 21.7963 0
1 0.524336 22.7044 0
1 1.04867 21.7963 0
1 1.57301 22.7044 0
1 2.09735 21.7963 0
1 2.62168 22.7044 0
1 3.14602 21.7963 0
1 3.67036 22.7044 0
1 4.19469 21.7963 0
1 4.71903 22.7044 0
1 5.24336 21.7963 0
1 5.7677 22.7044 0
1 6.29204 21.7963 0
1 6.81637 22.7044 0
1 7.34071 21.7963 0
1 7.86505 22.7044 0
1 8.38938 21.7963 0
1 8.91372 22.7044 0
1 9.43806 21.7963 0
1 9.96239 22.7044 0
1 10.4867 21.7963 0
1 11.0111 22.7044 0
1 11.5354 21.7963 0
1 12.0597 22.7044 0
1 12.5841 21.7963 0
1 13.1084 22.7044 0
1 13.6327 21.7963 0
1 14.1571 22.7044 0
1 14.6814 21.7963 0
1 15.2058 22.7044 0
1 15.7301 21.7963 0
1 16.2544 22.7044 0
1 16.7788 21.7963 0
1 17.3031 22.7044 0
1 17.8274 21.7963 0
1 18.3518 22.7044 0
1 18.8761 21.7963 0
1 19.4004 22.7044 0
1 19.9248 21.7963 0
1 20.4491 22.7044 0
1 20.9735 21.7963 0
1 21.4978 22.7044 0
1 22.0221 21.7963 0
1 22.5465 22.7044 0
1 23.0708 21.7963 0
1 23.5951 22.7044 0
1 24.1195 21.7963 0
1 24.6438 22.7044 0
1 25.1681 21.7963 0
1 25.6925 22.7044 0
1 26.2168 21.7963 0
1 26.7412 22.7044 0
1 27.2655 21.7963 0
1 27.7898 22.7044 0
1 28.3142 21.7963 0
1 28.8385 22.7044 0
1 29.3628 21.7963 0
1 29.8872 22.7044 0
1 30.4115 21.7963 0
1 30.9358 22.7044 0
1 31.4602 21.7963 0
1 31.9845 22.7044 0
1 32.5089 21.7963 0
1 33.0332 22.7044 0
1 33.5575 21.7963 0
1 34.0819 22.7044 0
1 34.6062 21.7963 0
1 35.1305 22.7044 0
1 35.6549 21.7963 0
1 36.1792 22.7044 0
1 36.7036 21.7963 0
1 37.2279 22.7044 0
1 37.7522 21.7963 0
1 38.2766 22.7044 0
1 38.8009 21.7963 0
1 39.3252 22.7044 0
1 39.8496 21.7963 0
1 40.3739 22.7044 0
1 40.8982 21.7963 0
1 41.4226 22.7044 0
1 0 23.6126 0
1 0.524336 24.5208 0
1 1.04867 23.6126 0
1 1.57301 24.5208 0
1 2.09735 23.6126 0
1 2.62168 24.5208 0
1 3.14602 23.6126 0
1 3.67036 24.5208 0
1 4.19469 23.6126 0
1 4.71903 24.5208 0
1 5.24336 23.6126 0
1 5.7677 24.5208 0
1 6.29204 23.6126 0
1 6.81637 24.5208 0
1 7.34071 23.6126 0
1 7.86505 24.5208 0
1 8.38938 23.6126 0
1 8.91372 24.5208 0
1 9.43806 23.6126 0
1 9.96239 24.5208 0
1 10.4867 23.6126 0
1 11.0111 24.5208 0
1 11.5354 23.6126 0
1 12.0597 24.5208 0
1 12.5841 23.6126 0
1 13.1084 24.5208 0
1 13.6327 23.6126 0
1 14.1571 24.5208 0
1 14.6814 23.6126 0
1 15.2058 24.5208 0
1 15.7301 23.6126 0
1 16.2544 24.5208 0
1 16.7788 23.6126 0
1 17.3031 24.5208 0
1 17.8274 23.6126 0
1 18.3518 24.5208 0
1 18.8761 23.6126 0
1 19.4004 24.5208 0
1 19.9248 23.6126 0
1 20.4491 24.5208 0
1 20.9735 23.6126 0
1 21.4978 24.5208 0
1 22.0221 23.6126 0
1 22.5465 24.5208 0
1 23.0708 23.6126 0
1 23.5951 24.5208 0
1 24.1195 23.6126 0
1 24.6438 24.5208 0
1 25.1681 23.6126 0
1 25.6925 24.5208 0
1 26.2168 23.6126 0
1 26.7412 24.5208 0
1 27.2655 23.6126 0
1 27.7898 24.5208 0
1 28.3142 23.6126 0
1 28.8385 24.5208 0
1 29.3628 23.6126 0
1 29.8872 24.5208 0
1 30.4115 23.6126 0
1 30.9358 24.5208 0
1 31.4602 23.6126 0
1 31.9845 24.5208 0
1 32.5089 23.6126 0
1 33.0332 24.5208 0
1 33.5575 23.6126 0
1 34.0819 24.5208 0
1 34.6062 23.6126 0
1 35.1305 24.5208 0
1 35.6549 23.6126 0
1 36.1792 24.5208 0
1 36.7036 23.6126 0
1 37.2279 24.5208 0
1 37.7522 23.6126 0
1 38.2766 24.5208 0
1 38.8009 23.6126 0
1 39.3252 24.5208 0
1 39.8496 23.6126 0
1 40.3739 24.5208 0
1 40.8982 23.6126 0
1 41.4226 24.5208 0
1 0 25.429 0
1 0.524336 26.3371 0
1 1.04867 25.429 0
1 1.57301 26.3371 0
1 2.09735 25.429 0
1 2.62168 26.3371 0
1 3.14602 25.429 0
1 3.67036 26.3371 0
1 4.19469 25.429 0
1 4.71903 26.3371 0
1 5.24336 25.429 0
1 5.7677 26.3371 0
1 6.29204 25.429 0
1 6.81637 26.3371 0
1 7.34071 25.429 0
1 7.86505 26.3371 0
1 8.38938 25.429 0
1 8.91372 26.3371 0
1 9.43806 25.429 0
1 9.96239 26.3371 0
1 10.4867 25.429 0
1 11.0111 26.3371 0
1 11.5354 25.429 0
1 12.0597 26.3371 0
1 12.5841 25.429 0
1 13.1084 26.3371 0
1 13.6327 25.429 0
1 14.1571 26.3371 0
1 14.6814 25.429 0
1 15.2058 26.3371 0
1 15.7301 25.429 0
1 16.2544 26.3371 0
1 16.7788 25.429 0
1 17.3031 26.3371 0
1 17.8274 25.429 0
1 18.3518 26.3371 0
1 18.8761 25.429 0
1 19.4004 26.3371 0
1 19.9248 25.429 0
1 20.4491 26.3371 0
1 20.9735 25.429 0
1 21.4978 26.3371 0
1 22.0221 25.429 0
1 22.5465 26.3371 0
1 23.0708 25.429 0
1 23.5951 26.3371 0
1 24.1195 25.429 0
1 24.6438 26.3371 0
1 25.1681 25.429 0
1 25.6925 26.3371 0
1 26.2168 25.429 0
1 26.7412 26.3371 0
1 27.2655 25.429 0
1 27.7898 26.3371 0
1 28.3142 25.429 0
1 28.8385 26.3371 0
1 29.3628 25.429 0
1 29.8872 26.3371 0
1 30.4115 25.429 0
1 30.9358 26.3371 0
1 31.4602 25.429 0
1 31.9845 26.3371 0
1 32.5089 25.429 0
1 33.0332 26.3371 0
1 33.5575 25.429 0
1 34.0819 26.3371 0
1 34.6062 25.429 0
1 35.1305 26.3371 0
1 35.6549 25.429 0
1 36.1792 26.3371 0
1 36.7036 25.429 0
1 37.2279 26.3371 0
1 37.7522 25.429 0
1 38.2766 26.3371 0
1 38.8009 25.429 0
1 39.3252 26.3371 0
1 39.8496 25.429 0
1 40.3739 26.3371 0
1 40.8982 25.429 0
1 41.4226 26.3371 0
1 0 27.2453 0
1 0.524336 28.1535 0
1 1.04867 27.2453 0
1 1.57301 28.1535 0
1 2.09735 27.2453 0
1 2.62168 28.1535 0
1 3.14602 27.2453 0
1 3.67036 28.1535 0
1 4.19469 27.2453 0
1 4.71903 28.1535 0
1 5.24336 27.2453 0
1 5.7677 28.1535 0
1 6.29204 27.2453 0
1 6.81637 28.1535 0
1 7.34071 27.2453 0
1 7.86505 28.1535 0
1 8.38938 27.2453 0
1 8.91372 28.1535 0
1 9.43806 27.2453 0
1 9.96239 28.1535 0
1 10.4867 27.2453 0
1 11.0111 28.1535 0
1 11.5354 27.2453 0
1 12.0597 28.1535 0
1 12.5841 27.2453 0
1 13.1084 28.1535 0
1 13.6327 27.2453 0
1 14.1571 28.1535 0
1 14.6814 27.2453 0
1 15.2058 28.1535 0
1 15.7301 27.2453 0
1 16.2544 28.1535 0
1 16.7788 27.2453 0
1 17.3031 28.1535 0
1 17.8274 27.2453 0
1 18.3518 28.1535 0
1 18.8761 27.2453 0
1 19.4004 28.1535 0
1 19.9248 27.2453 0
1 20.4491 28.1535 0
1 20.9735 27.2453 0
1 21.4978 28.1535 0
1 22.0221 27.2453 0
1 22.5465 28.1535 0
1 23.0708 27.2453 0
1 23.5951 28.1535 0
1 24.1195 27.2453 0
1 24.6438 28.1535 0
1 25.1681 27.2453 0
1 25.6925 28.1535 0
1 26.2168 27.2453 0
1 26.7412 28.1535 0
1 27.2655 27.2453 0
1 27.7898 28.1535 0
1 28.3142 27.2453 0
1 28.8385 28.1535 0
1 29.3628 27.2453 0
1 29.8872 28.1535 0
1 30.4115 27.2453 0
1 30.9358 28.1535 0
1 31.4602 27.2453 0
1 31.9845 28.1535 0
1 32.5089 27.2453 0
1 33.0332 28.1535 0
1 33.5575 27.2453 0
1 34.0819 28.1535 0
1 34.6062 27.2453 0
1 35.1305 28.1535 0
1 35.6549 27.2453 0
1 36.1792 28.1535 0
1 36.7036 27.2453 0
1 37.2279 28.1535 0
1 37.7522 27.2453 0
1 38.2766 28.1535 0
1 38.8009 27.2453 0
1 39.3252 28.1535 0
1 39.8496 27.2453 0
1 40.3739 28.1535 0
1 40.8982 27.2453 0
1 41.4226 28.1535 0
1 0 29.0617 0
1 0.524336 29.9699 0
1 1.04867 29.0617 0
1 1.57301 29.9699 0
1 2.09735 29.0617 0
1 2.62168 29.9699 0
1 3.14602 29.0617 0
1 3.67036 29.9699 0
1 4.19469 29.0617 0
1 4.71903 29.9699 0
1 5.24336 29.0617 0
1 5.7677 29.9699 0
1 6.29204 29.0617 0
1 6.81637 29.9699 0
1 7.34071 29.0617 0
1 7.86505 29.9699 0
1 8.38938 29.0617 0
1 8.91372 29.9699 0
1 9.43806 29.0617 0
1 9.96239 29.9699 0
1 10.4867 29.0617 0
1 11.0111 29.9699 0
1 11.5354 29.0617 0
1 12.0597 29.9699 0
1 12.5841 29.0617 0
1 13.1084 29.9699 0
1 13.6327 29.0617 0
1 14.1571 29.9699 0
1 14.6814 29.0617 0
1 15.2058 29.9699 0
1 15.7301 29.0617 0
1 16.2544 29.9699 0
1 16.7788 29.0617 0
1 17.3031 29.9699 0
1 17.8274 29.0617 0
1 18.3518 29.9699 0
1 18.8761 29.0617 0
1 19.4004 29.9699 0
1 19.9248 29.0617 0
1 20.4491 29.9699 0
1 20.9735 29.0617 0
1 21.4978 29.9699 0
1 22.0221 29.0617 0
1 22.5465 29.9699 0
1 23.0708 29.0617 0
1 23.5951 29.9699 0
1 24.1195 29.0617 0
1 24.6438 29.9699 0
1 25.1681 29.0617 0
1 25.6925 29.9699 0
1 26.2168 29.0617 0
1 26.7412 29.9699 0
1 27.2655 29.0617 0
1 27.7898 29.9699 0
1 28.3142 29.0617 0
1 28.8385 29.9699 0
1 29.3628 29.0617 0
1 29.8872 29.9699 0
1 30.4115 29.0617 0
1 30.9358 29.9699 0
1 31.4602 29.0617 0
1 31.9845 29.9699 0
1 32.5089 29.0617 0
1 33.0332 29.9699 0
1 33.5575 29.0617 0
1 34.0819 29.9699 0
1 34.6062 29.0617 0
1 35.1305 29.9699 0
1 35.6549 29.0617 0
1 36.1792 29.9699 0
1 36.7036 29.0617 0
1 37.2279 29.9699 0
1 37.7522 29.0617 0
1 38.2766 29.9699 0
1 38.8009 29.0617 0
1 39.3252 29.9699 0
1 39.8496 29.0617 0
1 40.3739 29.9699 0
1 40.8982 29.0617 0
1 41.4226 29.9699 0
1 0 30.878 0
1 0.524336 31.7862 0
1 1.04867 30.878 0
1 1.57301 31.7862 0
1 2.09735 30.878 0
1 2.62168 31.7862 0
1 3.14602 30.878 0
1 3.67036 31.7862 0
1 4.19469 30.878 0
1 4.71903 31.7862 0
1 5.24336 30.878 0
1 5.7677 31.7862 0
1 6.29204 30.878 0
1 6.81637 31.7862 0
1 7.34071 30.878 0
1 7.86505 31.7862 0
1 8.38938 30.878 0
1 8.91372 31.7862 0
1 9.43806 30.878 0
1 9.96239 31.7862 0
1 10.4867 30.878 0
1 11.0111 31.7862 0
1 11.5354 30.878 0
1 12.0597 31.7862 0
1 12.5841 30.878 0
1 13.1084 31.7862 0
1 13.6327 30.878 0
1 14.1571 31.7862 0
1 14.6814 30.878 0
1 15.2058 31.7862 0
1 15.7301 30.878 0
1 16.2544 31.7862 0
1 16.7788 30.878 0
1 17.3031 31.7862 0
1 17.8274 30.878 0
1 18.3518 31.7862 0
1 18.8761 30.878 0
1 19.4004 31.7862 0
1 19.9248 30.878 0
1 20.4491 31.7862 0
1 20.9735 30.878 0
1 21.4978 31.7862 0
1 22.0221 30.878 0
1 22.5465 31.7862 0
1 23.0708 30.878 0
1 23.5951 31.7862 0
1 24.1195 30.878 0
1 24.6438 31.7862 0
1 25.1681 30.878 0
1 25.6925 31.7862 0
1 26.2168 30.878 0
1 26.7412 31.7862 0
1 27.2655 30.878 0
1 27.7898 31.7862 0
1 28.3142 30.878 0
1 28.8385 31.7862 0
1 29.3628 30.878 0
1 29.8872 31.7862 0
1 30.4115 30.878 0
1 30.9358 31.7862 0
1 31.4602 30.878 0
1 31.9845 31.7862 0
1 32.5089 30.878 0
1 33.0332 31.7862 0
1 33.5575 30.878 0
1 34.0819 31.7862 0
1 34.6062 30.878 0
1 35.1305 31.7862 0
1 35.6549 30.878 0
1 36.1792 31.7862 0
1 36.7036 30.878 0
1 37.2279 31.7862 0
1 37.7522 30.878 0
1 38.2766 31.7862 0
1 38.8009 30.878 0
1 39.3252 31.7862 0
1 39.8496 30.878 0
1 40.3739 31.7862 0
1 40.8982 30.878 0
1 41.4226 31.7862 0
1 0 32.6944 0
1 0.524336 33.6026 0
1 1.04867 32.6944 0
1 1.57301 33.6026 0
1 2.09735 32.6944 0
1 2.62168 33.6026 0
1 3.14602 32.6944 0
1 3.67036 33.6026 0
1 4.19469 32.6944 0
1 4.71903 33.6026 0
1 5.24336 32.6944 0
1 5.7677 33.6026 0
1 6.29204 32.6944 0
1 6.81637 33.6026 0
1 7.34071 32.6944 0
1 7.86505 33.6026 0
1 8.38938 32.6944 0
1 8.91372 33.6026 0
1 9.43806 32.6944 0
1 9.96239 33.6026 0
1 10.4867 32.6944 0
1 11.0111 33.6026 0
1 11.5354 32.6944 0
1 12.0597 33.6026 0
1 12.5841 32.6944 0
1 13.1084 33.6026 0
1 13.6327 32.6944 0
1 14.1571 33.6026 0
1 14.6814 32.6944 0
1 15.2058 33.6026 0
1 15.7301 32.6944 0
1 16.2544 33.6026 0
1 16.7788 32.6944 0
1 17.3031 33.6026 0
1 17.8274 32.6944 0
1 18.3518 33.6026 0
1 18.8761 32.6944 0
1 19.4004 33.6026 0
1 19.9248 32.6944 0
1 20.4491 33.6026 0
1 20.9735 32.6944 0
1 21.4978 33.6026 0
1 22.0221 32.6944 0
1 22.5465 33.6026 0
1 23.0708 32.6944 0
1 23.5951 33.6026 0
1 24.1195 32.6944 0
1 24.6438 33.6026 0
1 25.1681 32.6944 0
1 25.6925 33.6026 0
1 26.2168 32.6944 0
1 26.7412 33.6026 0
1 27.2655 32.6944 0
1 27.7898 33.6026 0
1 28.3142 32.6944 0
1 28.8385 33.6026 0
1 29.3628 32.6944 0
1 29.8872 33.6026 0
1 30.4115 32.6944 0
1 30.9358 33.6026 0
1 31.4602 32.6944 0
1 31.9845 33.6026 0
1 32.5089 32.6944 0
1 33.0332 33.6026 0
1 33.5575 32.6944 0
1 34.0819 33.6026 0
1 34.6062 32.6944 0
1 35.1305 33.6026 0
1 35.6549 32.6944 0
1 36.1792 33.6026 0
1 36.7036 32.6944 0
1 37.2279 33.6026 0
1 37.7522 32.6944 0
1 38.2766 33.6026 0
1 38.8009 32.6944 0
1 39.3252 33.6026 0
1 39.8496 32.6944 0
1 40.3739 33.6026 0
1 40.8982 32.6944 0
1 41.4226 33.6026 0
1 0 34.5107 0
1 0.524336 35.4189 0