100
Atoms. Timestep: 0
1 0 0 0
1 5.37285 9.30605 0
1 10.7457 0 0
1 16.1185 9.30605 0
1 21.4914 0 0
1 26.8642 9.30605 0
1 32.2371 0 0
1 37.6099 9.30605 0
1 42.9828 0 0
1 48.3556 9.30605 0
1 53.7285 0 0
1 59.1013 9.30605 0
1 64.4742 0 0
1 69.847 9.30605 0
1 75.2199 0 0
1 80.5927 9.30605 0
1 85.9656 0 0
1 91.3384 9.30605 0
1 96.7113 0 0
1 102.084 9.30605 0
1 0 18.6121 0
1 5.37285 27.9181 0
1 10.7457 18.6121 0
1 16.1185 27.9181 0
1 21.4914 18.6121 0
1 26.8642 27.9181 0
1 32.2371 18.6121 0
1 37.6099 27.9181 0
1 42.9828 18.6121 0
1 48.3556 27.9181 0
1 53.7285 18.6121 0
1 59.1013 27.9181 0
1 64.4742 18.6121 0
1 69.847 27.9181 0
1 75.2199 18.6121 0
1 80.5927 27.9181 0
1 85.9656 18.6121 0
1 91.3384 27.9181 0
1 96.7113 18.6121 0
1 102.084 27.9181 0
1 0 37.2242 0
1 5.37285 46.5302 0
1 10.7457 37.2242 0
1 16.1185 46.5302 0
1 21.4914 37.2242 0
1 26.8642 46.5302 0
1 32.2371 37.2242 0
1 37.6099 46.5302 0
1 42.9828 37.2242 0
1 48.3556 46.5302 0
1 53.7285 37.2242 0
1 59.1013 46.5302 0
1 64.4742 37.2242 0
1 69.847 46.5302 0
1 75.2199 37.2242 0
1 80.5927 46.5302 0
1 85.9656 37.2242 0
1 91.3384 46.5302 0
1 96.7113 37.2242 0
1 102.084 46.5302 0
1 0 55.8363 0
1 5.37285 65.1423 0
1 10.7457 55.8363 0
1 16.1185 65.1423 0
1 21.4914 55.8363 0
1 26.8642 65.1423 0
1 32.2371 55.8363 0
1 37.6099 65.1423 0
1 42.9828 55.8363 0
1 48.3556 65.1423 0
1 53.7285 55.8363 0
1 59.1013 65.1423 0
1 64.4742 55.8363 0
1 69.847 65.1423 0
1 75.2199 55.8363 0
1 80.5927 65.1423 0
1 85.9656 55.8363 0
1 91.3384 65.1423 0
1 96.7113 55.8363 0
1 102.084 65.1423 0
1 0 74.4484 0
1 5.37285 83.7544 0
1 10.7457 74.4484 0
1 16.1185 83.7544 0
1 21.4914 74.4484 0
1 26.8642 83.7544 0
1 32.2371 74.4484 0
1 37.6099 83.7544 0
1 42.9828 74.4484 0
1 48.3556 83.7544 0
1 53.7285 74.4484 0
1 59.1013 83.7544 0
1 64.4742 74.4484 0
1 69.847 83.7544 0
1 75.2199 74.4484 0
1 80.5927 83.7544 0
1 85.9656 74.4484 0
1 91.3384 83.7544 0
1 96.7113 74.4484 0
1 102.084 83.7544 0
100
Atoms. Timestep: 1000
1 5.44309 0.52403 0
1 104.613 12.4196 0
1 8.09375 80.7726 0
1 17.6635 15.4187 0
1 21.2364 4.76156 0
1 39.2656 11.9198 0
1 24.6829 91.4096 0
1 34.4962 1.46126 0
1 39.9516 79.8993 0
1 46.1468 7.97229 0
1 43.1324 8.89068 0
1 55.5302 5.61704 0
1 54.6537 7.46621 0
1 65.3892 2.92391 0
1 83.7662 91.6048 0
1 81.9718 8.76934 0
1 82.1942 81.8337 0
1 99.1969 11.9388 0
1 88.7281 10.6478 0
1 1.18147 89.6202 0
1 107.175 12.9259 0
1 3.9341 14.6982 0
1 18.026 19.6864 0
1 12.1732 19.8338 0
1 25.7451 14.9268 0
1 21.6126 29.0154 0
1 27.2081 27.3833 0
1 45.3325 15.0765 0
1 49.6509 30.3333 0
1 36.3506 32.2495 0
1 59.8516 26.8869 0
1 49.3443 28.2776 0
1 63.4373 32.2338 0
1 71.6602 30.5312 0
1 86.6893 23.2246 0
1 68.4464 30.8202 0
1 87.0912 27.11 0
1 84.2897 39.8247 0
1 89.0063 7.6034 0
1 101.075 37.9638 0
1 101.837 49.5438 0
1 3.60294 58.1785 0
1 4.2628 25.7432 0
1 5.84509 53.4197 0
1 16.4878 41.2065 0
1 24.0945 52.3623 0
1 39.723 43.7893 0
1 43.9802 40.1633 0
1 49.2108 23.7242 0
1 45.1768 43.3531 0
1 63.2033 26.3812 0
1 51.6756 41.8517 0
1 60.2232 49.8053 0
1 79.3265 42.3182 0
1 64.7237 26.0604 0
1 77.7056 50.8565 0
1 80.4821 50.0375 0
1 94.249 47.614 0
1 1.16613 32.5191 0
1 96.9479 34.9472 0
1 11.6787 66.7844 0
1 101.534 57.3019 0
1 12.6278 42.9917 0
1 26.6913 57.8036 0
1 23.882 54.6693 0
1 40.3911 51.3576 0
1 41.3968 51.591 0
1 39.2614 77.2383 0
1 50.9215 56.4821 0
1 47.7371 62.9213 0
1 64.0925 63.1933 0
1 59.214 62.5597 0
1 64.3007 51.5806 0
1 70.8515 78.083 0
1 63.6035 57.4048 0
1 77.8904 70.0863 0
1 87.4133 47.8238 0
1 79.9648 67.7448 0
1 96.5781 54.8909 0
1 90.342 60.1618 0
1 9.95027 69.2001 0
1 101.209 84.6213 0
1 21.921 78.6265 0
1 13.2221 2.03638 0
1 24.0795 84.4351 0
1 35.969 87.2263 0
1 37.1289 76.1879 0
1 36.1002 0.499317 0
1 48.2714 70.5368 0
1 58.5618 84.6813 0
1 45.4527 71.9768 0
1 71.6784 79.2668 0
1 59.2176 66.9516 0
1 71.4452 92.3779 0
1 81.8556 79.4064 0
1 72.5699 80.1402 0
1 82.9317 70.052 0
1 102.138 71.262 0
1 88.37 77.2112 0
1 104.773 80.2459 0
100
Atoms. Timestep: 2000
1 10.8862 1.04806 0
1 107.159 9.97603 0
1 5.44181 68.4846 0
1 24.6311 14.9361 0
1 20.9815 9.52313 0
1 51.5834 14.2582 0
1 17.1288 89.7587 0
1 34.4757 12.397 0
1 46.8742 74.2321 0
1 34.9966 10.9132 0
1 30.4439 14.4066 0
1 64.9244 4.19065 0
1 46.4456 14.5994 0
1 60.9314 89.6023 0
1 90.6627 4.9785 0
1 83.3508 8.23263 0
1 86.1764 85.4203 0
1 94.3888 17.0337 0
1 84.7313 20.6244 0
1 7.73578 76.8739 0
1 1.33971 10.3346 0
1 2.49536 1.47821 0
1 9.1721 14.6307 0
1 8.2658 11.743 0
1 29.9988 11.2414 0
1 27.077 42.8288 0
1 22.18 36.1548 0
1 50.457 0.490549 0
1 59.7192 40.8887 0
1 24.3446 36.5807 0
1 58.2857 31.3155 0
1 39.1749 29.4599 0
1 67.63 49.2039 0
1 72.4867 29.8692 0
1 97.2371 28.624 0
1 57.2004 37.0703 0
1 88.2169 35.6078 0
1 76.6413 51.0734 0
1 77.3147 90.3264 0
1 100.155 48.085 0
1 96.0222 61.8226 0
1 1.65392 69.7337 0
1 105.237 14.2621 0
1 103.751 60.6677 0
1 11.4843 45.1889 0
1 20.7971 41.8283 0
1 47.3423 50.3843 0
1 44.6216 29.252 0
1 52.451 10.5673 0
1 53.1344 36.551 0
1 52.6562 19.0925 0
1 44.2498 37.1732 0
1 56.0649 60.4461 0
1 89.529 38.7421 0
1 76.7951 11.767 0
1 74.9562 55.2272 0
1 74.5107 62.753 0
1 96.9482 48.2973 0
1 12.9889 27.7388 0
1 92.7333 22.5773 0
1 22.8465 77.777 0
1 97.7104 49.6306 0
1 13.7878 29.788 0
1 36.7421 69.024 0
1 27.3222 51.309 0
1 46.8563 45.2703 0
1 52.0772 47.7879 0
1 42.3447 77.071 0
1 58.4877 59.1533 0
1 47.1186 60.7003 0
1 74.453 70.5814 0
1 59.2921 59.9386 0
1 64.1271 47.325 0
1 64.3551 89.2695 0
1 54.8091 56.7578 0
1 75.1881 75.0303 0
1 88.7376 39.8333 0
1 74.7052 56.986 0
1 89.3791 54.2178 0
1 78.5999 55.1813 0
1 20.4115 63.9073 0
1 89.5874 85.4881 0
1 33.0964 82.8046 0
1 10.2834 13.3946 0
1 26.6676 1.36127 0
1 31.0566 86.2337 0
1 36.5774 78.7737 0
1 33.2481 9.57355 0
1 50.5509 61.5948 0
1 68.9184 85.6998 0
1 45.1553 64.1516 0
1 71.2235 72.3756 0
1 51.946 61.5363 0
1 73.0433 7.94096 0
1 88.1863 69.9298 0
1 73.6542 86.0039 0
1 79.8977 65.6557 0
1 5.66042 58.8625 0
1 79.7448 79.677 0
1 0.00417664 76.7373 0
100
Atoms. Timestep: 3000
1 16.3293 1.57209 0
1 2.57918 5.18942 0
1 2.78986 56.1967 0
1 33.2872 14.3162 0
1 20.7265 14.2847 0
1 63.5935 15.8146 0
1 9.57463 88.1079 0
1 34.6975 22.406 0
1 58.8471 63.1929 0
1 33.2825 21.1669 0
1 17.2747 18.0541 0
1 74.3182 2.76482 0
1 40.7385 23.9043 0
1 56.4736 83.2201 0
1 97.5592 11.4127 0
1 84.7636 7.70525 0
1 84.5631 2.68724 0
1 85.9513 7.67912 0
1 80.7346 30.601 0
1 14.2901 64.1275 0
1 6.81198 9.37285 0
1 1.05661 81.3187 0
1 2.37664 10.3429 0
1 4.75535 3.64486 0
1 24.9565 17.8831 0
1 36.8554 52.0271 0
1 16.9715 31.1852 0
1 53.3885 77.5747 0
1 63.8097 42.0477 0
1 20.0863 39.8749 0
1 64.18 37.0734 0
1 29.0058 30.6428 0
1 71.8226 66.174 0
1 73.3132 29.2073 0
1 105.72 35.4421 0
1 45.9543 43.3204 0
1 84.9933 35.1281 0
1 87.3338 48.5057 0
1 78.2534 92.4073 0
1 97.0886 56.2894 0
1 90.0767 74.0664 0
1 104.338 74.3361 0
1 98.754 2.78106 0
1 94.199 67.9158 0
1 6.48068 49.1713 0
1 9.93254 46.0726 0
1 52.5253 57.8173 0
1 45.2629 18.3406 0
1 55.6913 90.4709 0
1 58.2135 21.4944 0
1 42.1116 11.8031 0
1 36.824 32.4947 0
1 58.6314 60.5028 0
1 100.393 33.1829 0
1 88.4624 90.3048 0
1 56.7601 47.4354 0
1 66.6585 75.0492 0
1 95.5314 40.8104 0
1 26.0208 20.7316 0
1 89.9758 24.0347 0
1 33.9303 88.7661 0
1 104.101 51.9761 0
1 13.7386 18.8111 0
1 46.7929 80.2445 0
1 26.545 52.4061 0
1 48.7632 46.2246 0
1 62.6754 43.8706 0
1 42.027 82.6568 0
1 56.019 59.9891 0
1 35.0645 52.6426 0
1 84.79 78.1108 0
1 67.1094 64.2245 0
1 65.5846 50.6284 0
1 56.8512 6.56308 0
1 54.5582 51.751 0
1 72.4799 79.9907 0
1 93.9164 43.0153 0
1 73.4836 60.6106 0
1 78.3586 53.6499 0
1 71.1807 51.7537 0
1 30.9567 58.618 0
1 84.0273 81.3199 0
1 44.2717 86.9827 0
1 3.62709 25.5265 0
1 29.2556 11.3479 0
1 20.6971 92.1217 0
1 36.026 81.3595 0
1 30.0899 2.31387 0
1 41.0202 64.5983 0
1 65.7761 78.1206 0
1 49.535 47.2252 0
1 65.1948 75.9093 0
1 56.4686 61.039 0
1 74.6414 16.5645 0
1 94.6034 59.154 0
1 77.0155 90.4019 0
1 76.8638 61.2593 0
1 16.8807 46.6004 0
1 70.9751 81.9497 0
1 5.27529 80.0444 0
100
Atoms. Timestep: 4000
1 21.593 6.61466 0
1 5.21764 0.107053 0
1 1.44291 45.1443 0
1 41.7939 14.105 0
1 20.4716 19.0463 0
1 75.6036 17.3711 0
1 2.02047 86.457 0
1 35.0868 32.018 0
1 70.5271 51.8555 0
1 32.8977 30.6895 0
1 3.72641 20.7786 0
1 83.5365 0.800312 0
1 34.9256 33.059 0
1 52.0158 76.838 0
1 104.456 17.8469 0
1 81.5818 8.59132 0
1 74.9836 12.2234 0
1 90.4791 87.7495 0
1 77.0274 40.72 0
1 20.8444 51.3812 0
1 12.6644 8.70409 0
1 107.075 68.0988 0
1 103.325 5.88487 0
1 1.1361 88.8243 0
1 18.4654 26.5833 0
1 51.3404 54.0912 0
1 11.9713 21.6449 0
1 56.1228 61.362 0
1 64.2854 38.777 0
1 18.2742 43.2171 0
1 76.0282 39.8148 0
1 18.8366 31.8257 0
1 76.0153 83.1441 0
1 74.1397 28.5454 0
1 6.74536 42.2601 0
1 34.7083 49.5705 0
1 80.4644 31.9046 0
1 100.945 43.856 0
1 84.0284 6.44545 0
1 103.22 62.8128 0
1 84.1467 86.3642 0
1 97.8433 74.3347 0
1 92.5916 84.0855 0
1 84.6475 75.1639 0
1 4.59955 56.1076 0
1 103.173 50.1942 0
1 53.8607 66.3589 0
1 45.8949 7.41915 0
1 56.1927 76.8164 0
1 60.1468 5.91759 0
1 31.5671 4.51381 0
1 28.0069 29.0942 0
1 61.6461 59.3722 0
1 3.83875 27.7321 0
1 98.6886 75.007 0
1 42.2417 37.0615 0
1 58.9698 82.9097 0
1 94.1228 33.3372 0
1 38.9676 13.3027 0
1 87.0243 30.1772 0
1 45.0235 6.70485 0
1 107.373 55.8743 0
1 13.8062 8.41504 0
1 56.7321 91.6521 0
1 22.3619 57.1857 0
1 37.8277 46.6003 0
1 70.1102 41.9924 0
1 41.7094 88.2425 0
1 53.8724 61.0406 0
1 20.084 47.4519 0
1 94.791 85.8612 0
1 74.9988 68.5878 0
1 51.2151 51.2997 0
1 49.3472 16.9171 0
1 58.347 45.5731 0
1 69.6826 85.1338 0
1 100.407 48.888 0
1 72.1565 65.1448 0
1 82.6695 60.102 0
1 67.9068 49.7061 0
1 41.502 53.3286 0
1 79.6967 76.1927 0
1 55.5586 90.9737 0
1 104.124 37.5522 0
1 31.9801 21.4179 0
1 10.517 0.43073 0
1 35.4745 83.9452 0
1 28.6482 86.3138 0
1 32.9702 68.6895 0
1 61.4952 87.8273 0
1 60.4787 34.1679 0
1 56.7949 62.6682 0
1 60.2805 61.8002 0
1 76.2395 25.188 0
1 91.4404 49.1514 0
1 81.9962 1.89867 0
1 73.8299 56.8629 0
1 27.8634 34.1355 0
1 62.2608 84.0561 0
1 12.2693 88.0172 0
100
Atoms. Timestep: 5000
1 26.7104 13.3168 0
1 7.95213 88.232 0
1 1.68026 38.3888 0
1 50.3006 13.8939 0
1 20.2166 23.8078 0
1 87.6137 18.9275 0
1 102.32 79.5666 0
1 38.1755 41.8308 0
1 82.1621 40.4833 0
1 32.4535 36.9166 0
1 97.7927 22.5673 0
1 90.5587 91.5582 0
1 29.1576 42.6076 0
1 47.5579 70.4558 0
1 3.69219 25.1633 0
1 78.2443 9.38267 0
1 63.8014 21.2759 0
1 96.7654 75.3378 0
1 85.5993 56.0669 0
1 27.3987 38.6348 0
1 18.5468 8.09564 0
1 103.621 56.0056 0
1 96.8157 1.42681 0
1 104.556 86.2352 0
1 11.3856 35.5077 0
1 64.5638 39.349 0
1 6.97102 12.1047 0
1 56.2112 57.73 0
1 64.8243 35.693 0
1 16.5862 46.6757 0
1 78.9747 33.5242 0
1 9.25617 32.7843 0
1 77.2173 7.20487 0
1 75.1146 27.8726 0
1 15.6682 48.0828 0
1 23.4622 55.8206 0
1 80.0821 30.0354 0
1 7.19192 36.7688 0
1 89.6845 13.4879 0
1 5.49738 68.016 0
1 81.2169 5.48152 0
1 92.1417 75.1051 0
1 89.471 70.4615 0
1 75.096 82.412 0
1 12.1542 63.4597 0
1 97.6388 63.0271 0
1 54.1537 75.2358 0
1 63.3137 6.541 0
1 50.5512 61.419 0
1 64.8535 0.740215 0
1 21.0226 90.285 0
1 16.505 28.3945 0
1 64.9432 58.3469 0
1 14.8222 22.3668 0
1 0.664666 58.9376 0
1 38.4482 22.922 0
1 53.6075 91.6512 0
1 92.7143 25.8641 0
1 51.7853 5.80219 0
1 84.0728 36.3198 0
1 38.9499 7.24268 0
1 100.985 61.6834 0
1 13.8892 91.0727 0
1 66.778 9.95256 0
1 18.1788 61.9653 0
1 21.9473 49.3676 0
1 74.1045 43.7315 0
1 41.3917 0.767748 0
1 51.6488 62.3435 0
1 4.67667 43.2446 0
1 101.741 2.38795 0
1 82.8883 72.9512 0
1 51.9551 52.9404 0
1 41.8433 27.2712 0
1 62.1595 39.4154 0
1 66.8852 90.2771 0
1 95.9585 41.8195 0
1 70.8295 69.6789 0
1 92.8265 69.227 0
1 58.5646 44.773 0
1 36.5259 46.4507 0
1 75.3661 71.0655 0
1 59.5764 9.18445 0
1 98.0201 49.5565 0
1 34.2291 20.9236 0
1 0.408037 93.0019 0
1 34.9231 86.531 0
1 27.2066 77.2533 0
1 24.9202 72.7807 0
1 62.2962 81.9467 0
1 71.5587 21.3282 0
1 52.6807 54.4763 0
1 63.7269 62.3646 0
1 73.5426 32.468 0
1 86.5583 39.3216 0
1 89.2921 6.85029 0
1 70.7959 52.4666 0
1 33.3975 33.3579 0
1 58.5295 84.9243 0
1 19.2633 2.92963 0
100
Atoms. Timestep: 6000
1 31.8278 20.0189 0
1 10.1014 83.0242 0
1 2.51198 34.9757 0
1 58.8072 13.6828 0
1 20.5899 28.9014 0
1 99.6238 20.484 0
1 96.1202 79.9362 0
1 41.1503 51.7883 0
1 82.9571 36.5803 0
1 33.2257 44.6882 0
1 93.1498 21.8893 0
1 97.4779 89.7505 0
1 23.5036 52.0115 0
1 43.1078 64.065 0
1 10.2478 32.9417 0
1 70.2548 10.8703 0
1 52.6193 30.3284 0
1 103.052 62.926 0
1 93.9039 71.5122 0
1 33.953 25.8885 0
1 24.5167 7.09175 0
1 99.1778 44.4935 0
1 90.3995 89.5446 0
1 100.375 84.867 0
1 3.07298 44.3866 0
1 75.6642 21.7613 0
1 1.97079 2.5644 0
1 58.7771 60.2907 0
1 65.9926 31.9632 0
1 15.9521 47.2752 0
1 83.9993 27.8347 0
1 0.704145 33.6114 0
1 74.1828 8.72769 0
1 76.1683 27.1974 0
1 21.2488 47.5279 0
1 12.2162 62.0708 0
1 82.3672 29.2098 0
1 19.8778 26.1841 0
1 95.3406 20.5304 0
1 15.9658 72.6126 0
1 85.198 17.3967 0
1 91.7105 75.6336 0
1 86.6124 56.7327 0
1 65.5442 89.6604 0
1 19.7089 70.8118 0
1 93.2153 77.2755 0
1 53.4689 84.3457 0
1 79.1652 4.17351 0
1 50.9331 46.6272 0
1 71.4471 2.59446 0
1 11.4312 84.278 0
1 5.00301 27.6948 0
1 68.2404 57.3216 0
1 25.8057 17.0016 0
1 10.046 42.8651 0
1 45.596 6.69542 0
1 46.4349 7.68903 0
1 82.6574 20.4479 0
1 64.6032 91.3618 0
1 85.3619 42.3215 0
1 32.6876 7.65955 0
1 94.8512 67.5181 0
1 13.6395 79.9221 0
1 77.8059 17.4162 0
1 13.9957 66.7449 0
1 8.80785 60.1743 0
1 78.0988 45.4707 0
1 41.074 6.35348 0
1 44.3749 62.816 0
1 96.2738 40.2347 0
1 1.23344 11.9752 0
1 85.563 77.5613 0
1 51.5661 41.2342 0
1 34.3394 37.6252 0
1 66.1783 34.4244 0
1 64.0878 2.35994 0
1 88.8493 33.4056 0
1 69.5025 74.2131 0
1 102.17 69.8711 0
1 48.835 39.2129 0
1 23.1836 38.6381 0
1 71.0356 65.9384 0
1 61.5281 25.6938 0
1 93.4614 61.4889 0
1 35.8329 8.8751 0
1 97.7203 92.3986 0
1 34.3716 89.1168 0
1 25.765 68.1927 0
1 16.8702 76.872 0
1 65.1392 65.5229 0
1 84.6546 23.6011 0
1 56.3343 61.0394 0
1 67.1734 62.9289 0
1 66.0267 38.112 0
1 88.2755 22.1635 0
1 96.598 11.7916 0
1 67.762 48.0702 0
1 27.3062 44.7516 0
1 56.5541 85.4284 0
1 26.1705 11.1499 0
100
Atoms. Timestep: 7000
1 36.9452 26.721 0
1 3.59081 72.8356 0
1 3.05922 31.0399 0
1 66.8409 12.062 0
1 26.1341 36.2405 0
1 4.17692 22.0404 0
1 90.8644 90.5528 0
1 43.9348 61.8397 0
1 80.3116 35.3121 0
1 34.5202 53.4661 0
1 93.0794 20.1232 0
1 104.304 88.3691 0
1 17.8495 61.4154 0
1 34.0023 60.2582 0
1 12.9763 39.098 0
1 62.0511 14.0891 0
1 41.4372 39.381 0
1 1.88079 50.5142 0
1 101.799 87.0458 0
1 40.4729 13.0825 0
1 30.7026 7.44645 0
1 95.1432 32.6659 0
1 84.1125 84.1389 0
1 96.1935 83.4987 0
1 102.185 53.2249 0
1 80.9881 27.1708 0
1 104.392 86.1214 0
1 63.8605 63.3016 0
1 67.8765 25.5429 0
1 15.0999 44.3095 0
1 92.4532 28.3105 0
1 99.8936 34.9612 0
1 70.8202 90.4796 0
1 75.1754 30.4262 0
1 25.8129 46.786 0
1 0.970127 68.3209 0
1 82.6053 23.4102 0
1 27.4249 13.3946 0
1 100.107 27.7277 0
1 26.0781 76.902 0
1 87.2987 26.6568 0
1 99.7382 75.9416 0
1 83.9938 42.9174 0
1 54.0461 87.7267 0
1 27.6196 78.471 0
1 88.665 91.475 0
1 55.4654 0.706791 0
1 93.2609 0.490772 0
1 51.3274 31.8577 0
1 77.4855 4.87001 0
1 11.3034 84.4754 0
1 101.848 26.8404 0
1 71.5375 56.2963 0
1 32.779 12.2554 0
1 10.2771 33.449 0
1 52.6574 85.1002 0
1 36.6895 14.7509 0
1 67.7154 16.6383 0
1 79.3634 93.0086 0
1 88.1399 47.8142 0
1 26.3669 6.94032 0
1 88.8507 74.6713 0
1 13.3433 67.9055 0
1 98.3437 92.2983 0
1 9.81261 71.5245 0
1 104.47 74.8212 0
1 82.093 47.2099 0
1 40.7811 12.1521 0
1 41.9341 60.5863 0
1 80.4103 37.2152 0
1 8.18316 21.5625 0
1 80.1025 82.5267 0
1 51.1781 29.532 0
1 26.7994 47.9652 0
1 69.5752 32.1725 0
1 61.2904 7.50325 0
1 82.2133 26.4631 0
1 68.1754 78.7472 0
1 3.05073 60.2719 0
1 39.1054 33.6527 0
1 23.1111 25.692 0
1 70.9156 64.5177 0
1 63.4803 42.2038 0
1 88.7698 72.1028 0
1 37.4367 89.8871 0
1 87.6112 91.7041 0
1 33.8202 91.7026 0
1 24.3233 59.1322 0
1 8.06299 80.6054 0
1 68.2649 49.0907 0
1 99.2251 37.7596 0
1 57.4695 67.1501 0
1 66.1266 59.7952 0
1 58.5107 43.7561 0
1 91.948 2.88925 0
1 103.904 16.7329 0
1 64.7276 43.6732 0
1 20.3259 55.1641 0
1 54.5705 85.9675 0
1 36.9301 18.5286 0
100
Atoms. Timestep: 8000
1 42.0626 33.4231 0
1 104.54 62.6495 0
1 3.60518 27.1033 0
1 73.4602 7.39318 0
1 31.6783 43.5796 0
1 16.187 23.5968 0
1 84.9843 8.23919 0
1 45.3454 72.2388 0
1 77.4698 35.0215 0
1 35.8148 62.2441 0
1 93.009 18.3571 0
1 4.18707 88.6775 0
1 12.1955 70.8193 0
1 24.4817 56.7535 0
1 13.3984 44.3581 0
1 55.2619 20.3559 0
1 31.5744 46.7863 0
1 8.16701 38.1024 0
1 23.576 85.1855 0
1 40.4568 19.0777 0
1 34.2745 7.21763 0
1 89.0606 35.7626 0
1 77.8254 78.7331 0
1 92.9121 82.5024 0
1 93.8403 62.0632 0
1 86.421 32.2042 0
1 99.0497 77.1226 0
1 68.9438 66.3125 0
1 69.7605 19.1227 0
1 14.0533 41.1125 0
1 104.24 18.4742 0
1 92.8411 35.9365 0
1 66.4767 79.4491 0
1 72.4867 36.9172 0
1 30.503 49.8536 0
1 97.1811 74.571 0
1 80.9839 12.8964 0
1 34.8665 0.42444 0
1 93.2998 37.5843 0
1 34.7517 80.8951 0
1 85.6883 29.6057 0
1 0.638123 76.6295 0
1 81.3753 29.102 0
1 43.188 83.8807 0
1 36.9691 86.4267 0
1 84.5166 12.4511 0
1 62.6734 10.6396 0
1 102.379 86.2236 0
1 52.3667 18.9535 0
1 83.1386 7.39688 0
1 11.1732 84.6705 0
1 105.903 23.6942 0
1 74.8347 55.2709 0
1 38.5401 9.4634 0
1 106.62 30.5288 0
1 54.8796 70.0485 0
1 27.1833 21.779 0
1 52.7734 12.8287 0
1 94.2449 2.07026 0
1 90.9179 53.3069 0
1 20.6454 4.15762 0
1 83.4049 86.702 0
1 13.2663 56.0182 0
1 102.005 0.0152244 0
1 5.62952 76.3041 0
1 92.3912 89.0842 0
1 86.0873 48.949 0
1 46.7805 92.2253 0
1 41.2822 57.7069 0
1 64.8528 33.0787 0
1 15.1329 31.1497 0
1 74.6419 87.4921 0
1 50.1452 15.9646 0
1 17.9572 56.2354 0
1 72.9722 29.9205 0
1 58.493 12.6465 0
1 78.7176 22.1235 0
1 68.2169 82.7525 0
1 11.3881 50.6727 0
1 29.3758 28.0926 0
1 37.0863 9.12059 0
1 73.6092 65.5643 0
1 56.4096 56.5191 0
1 83.5234 77.8391 0
1 39.0405 77.8386 0
1 77.6757 91.0508 0
1 33.3917 1.4108 0
1 22.7846 50.0282 0
1 106.494 84.2096 0
1 71.4788 32.6696 0
1 4.6152 52.9811 0
1 58.6046 73.2608 0
1 62.2161 54.191 0
1 50.9947 49.4001 0
1 94.9821 76.1976 0
1 3.75294 21.6742 0
1 70.716 41.4708 0
1 13.2996 65.5276 0
1 51.5032 87.8361 0
1 50.698 24.8547 0
100
Atoms. Timestep: 9000
1 47.18 40.1252 0
1 98.0314 52.4634 0
1 4.15113 23.1668 0
1 77.929 6.56957 0
1 34.4765 51.6223 0
1 25.0094 19.1298 0
1 78.4361 14.3813 0
1 47.6242 75.2374 0
1 74.6014 34.773 0
1 37.1094 71.0221 0
1 92.9386 16.591 0
1 11.662 89.7289 0
1 6.07199 78.9487 0
1 14.9612 53.2488 0
1 16.5108 44.9869 0
1 48.4727 26.6228 0
1 33.6528 42.1566 0
1 14.4532 25.6906 0
1 34.0481 91.7244 0
1 40.414 25.1535 0
1 28.048 2.92787 0
1 79.1404 42.4421 0
1 71.5384 73.3274 0
1 91.523 81.9298 0
1 85.4954 70.9014 0
1 90.7483 38.9231 0
1 93.7078 68.1244 0
1 74.0272 69.3234 0
1 71.6445 12.7025 0
1 12.7829 38.2261 0
1 8.44027 5.10644 0
1 92.1649 38.3868 0
1 58.0933 70.7802 0
1 69.6437 43.6594 0
1 26.0026 64.3198 0
1 83.2667 79.2057 0
1 78.7289 2.75151 0
1 39.9744 79.7833 0
1 84.018 45.9213 0
1 43.0073 75.8669 0
1 85.1144 30.8881 0
1 9.47714 78.1843 0
1 78.5513 18.4248 0
1 55.0369 84.4342 0
1 46.3154 1.3182 0
1 80.2591 26.4367 0
1 69.8813 20.5723 0
1 95.8985 80.2173 0
1 57.7979 6.4577 0
1 89.5579 11.2746 0
1 11.043 84.8655 0
1 2.49995 20.5484 0
1 78.1318 54.2456 0
1 43.8653 5.72322 0
1 95.5054 27.6087 0
1 57.1043 54.9989 0
1 19.9957 31.9193 0
1 48.5231 10.5747 0
1 1.30992 2.53213 0
1 93.6958 58.7996 0
1 14.924 1.37493 0
1 80.7433 1.45807 0
1 10.5474 48.4834 0
1 101.97 5.37723 0
1 1.48777 81.5809 0
1 80.2229 10.1818 0
1 90.0816 50.6882 0
1 53.431 79.6854 0
1 40.6304 54.8276 0
1 49.4383 28.7661 0
1 22.2629 40.6132 0
1 66.5735 90.0413 0
1 52.8009 9.92757 0
1 10.3769 62.5949 0
1 71.5856 25.2477 0
1 55.6956 17.7899 0
1 75.3581 17.7578 0
1 72.2982 84.3962 0
1 19.9388 41.036 0
1 20.5153 25.4437 0
1 38.9342 90.0812 0
1 76.3028 66.6109 0
1 48.7985 70.668 0
1 78.277 83.5754 0
1 40.6443 65.7902 0
1 70.4215 92.882 0
1 38.6056 88.904 0
1 20.8819 40.9957 0
1 5.57301 86.5047 0
1 79.7757 18.7793 0
1 16.3414 70.1044 0
1 59.7398 79.3715 0
1 58.3056 48.5869 0
1 43.4787 55.0441 0
1 98.8642 57.6402 0
1 11.0589 26.6155 0
1 77.088 39.2635 0
1 6.27321 75.8911 0
1 47.6581 89.2863 0
1 64.4658 31.1808 0
100
Atoms. Timestep: 10000
1 52.2974 46.8273 0
1 90.2588 43.9929 0
1 4.91845 18.275 0
1 75.0597 18.9346 0
1 36.2884 59.2196 0
1 30.5876 7.62457 0
1 74.4703 5.69104 0
1 58.7861 73.4663 0
1 79.0218 34.1496 0
1 30.1148 74.4236 0
1 94.698 14.444 0
1 17.9718 87.2955 0
1 106.361 87.2444 0
1 5.44067 49.7441 0
1 24.2102 37.782 0
1 41.4136 23.1885 0
1 36.6471 37.4553 0
1 20.7394 13.2789 0
1 28.3348 13.3695 0
1 40.3712 31.2292 0
1 20.2789 2.35001 0
1 69.2202 49.1217 0
1 65.2513 67.9217 0
1 90.1338 81.3573 0
1 77.1506 79.7397 0
1 96.1988 44.3286 0
1 88.3659 59.1262 0
1 79.1106 72.3344 0
1 59.3983 5.30902 0
1 11.4589 33.9352 0
1 7.3907 89.2713 0
1 91.629 40.4577 0
1 49.7099 62.1113 0
1 66.8887 50.4865 0
1 21.5023 78.7859 0
1 69.1249 83.6489 0
1 73.6824 89.2729 0
1 44.7111 65.9545 0
1 74.7368 54.2355 0
1 33.578 63.9852 0
1 84.5406 32.1704 0
1 18.9135 84.4317 0
1 70.8014 23.9415 0
1 81.6343 4.88481 0
1 54.812 7.33834 0
1 75.9089 40.4154 0
1 79.1977 28.5515 0
1 86.0829 74.5022 0
1 73.8376 86.2488 0
1 94.1837 15.6791 0
1 10.9128 85.0605 0
1 6.33293 18.3578 0
1 81.429 53.2203 0
1 46.6921 5.23495 0
1 84.391 24.6886 0
1 59.3095 39.9368 0
1 17.8196 44.0236 0
1 47.1283 10.9035 0
1 15.035 1.26306 0
1 96.4738 64.2922 0
1 23.0739 90.6656 0
1 87.7818 86.1245 0
1 3.21773 48.6418 0
1 102.731 12.4702 0
1 104.406 87.1157 0
1 80.5891 20.0476 0
1 94.0759 52.4273 0
1 60.0424 67.7716 0
1 40.1154 52.0602 0
1 34.2937 34.1548 0
1 29.688 43.1986 0
1 56.197 89.6612 0
1 55.5977 10.4397 0
1 4.51786 66.256 0
1 66.808 21.4897 0
1 52.8982 22.9332 0
1 71.9985 13.3922 0
1 75.0754 88.0989 0
1 9.95591 34.3573 0
1 13.2322 27.2218 0
1 37.469 84.6278 0
1 78.9963 67.6575 0
1 51.4142 75.4483 0
1 74.7733 86.698 0
1 42.2368 53.7357 0
1 65.6808 4.01532 0
1 46.7 68.6452 0
1 34.5366 38.308 0
1 15.4442 88.5086 0
1 93.3507 9.69293 0
1 26.3463 89.9261 0
1 60.8749 85.4822 0
1 54.4146 42.9954 0
1 35.9072 61.0993 0
1 102.974 39.2743 0
1 18.3648 31.5568 0
1 83.372 36.9713 0
1 0.0911576 81.1376 0
1 43.4415 90.441 0
1 70.945 37.8818 0
100
Atoms. Timestep: 11000
1 57.4148 53.5294 0
1 79.1976 40.2449 0
1 8.0546 13.0627 0
1 72.1904 31.2996 0
1 36.6539 62.3143 0
1 38.241 90.1806 0
1 76.425 91.3109 0
1 71.155 73.4227 0
1 91.2701 33.2755 0
1 14.6664 72.3242 0
1 99.7379 19.5703 0
1 26.3362 89.7539 0
1 102.401 1.4027 0
1 104.367 45.8974 0
1 31.9805 30.6939 0
1 34.2899 18.6193 0
1 39.5879 33.621 0
1 27.3804 4.2171 0
1 20.5913 26.9943 0
1 40.064 37.2259 0
1 12.9336 91.6814 0
1 59.2884 55.9942 0
1 58.9506 62.4889 0
1 89.2684 81.2796 0
1 68.5478 88.4402 0
1 104.861 44.8055 0
1 86.1882 51.3492 0
1 84.6235 74.3267 0
1 39.3487 90.211 0
1 6.66038 23.4021 0
1 0.270862 82.5184 0
1 91.2321 42.7027 0
1 41.766 54.3307 0
1 64.8429 57.6234 0
1 16.4028 79.6351 0
1 54.9831 88.0921 0
1 62.8665 92.1418 0
1 49.0083 51.2374 0
1 65.4556 62.5496 0
1 18.1685 51.8901 0
1 90.8938 35.8883 0
1 26.7106 90.7787 0
1 63.0625 29.4585 0
1 0.624219 18.7623 0
1 59.4398 4.72251 0
1 71.5587 54.3942 0
1 83.4254 29.9408 0
1 75.78 69.796 0
1 83.2935 71.0474 0
1 95.562 12.7608 0
1 10.7827 85.2555 0
1 7.79707 16.4877 0
1 81.5619 50.9738 0
1 49.5189 4.74668 0
1 71.6954 26.9805 0
1 61.4921 24.8601 0
1 17.4384 55.4679 0
1 45.7334 11.2324 0
1 27.9815 92.8557 0
1 99.2518 69.7849 0
1 38.6458 89.2233 0
1 94.2965 77.2355 0
1 102.293 49.1743 0
1 103.503 19.5137 0
1 95.5492 0.566723 0
1 84.5402 23.9974 0
1 98.0702 54.1665 0
1 66.2121 55.6829 0
1 39.7429 49.3398 0
1 19.143 40.5615 0
1 36.6523 45.2238 0
1 45.9272 89.0135 0
1 60.3298 18.3354 0
1 106.116 69.917 0
1 63.3348 19.69 0
1 50.1008 28.0765 0
1 68.6389 9.02655 0
1 76.2312 89.1792 0
1 3.38091 34.9734 0
1 4.21356 28.6107 0
1 36.0013 79.161 0
1 81.6899 68.7041 0
1 58.8031 78.7144 0
1 86.071 85.378 0
1 43.6964 41.6487 0
1 60.9401 8.2091 0
1 63.0084 53.6 0
1 48.9774 35.3892 0
1 24.15 1.70414 0
1 0.282298 2.54017 0
1 36.3512 16.6874 0
1 61.4993 91.3306 0
1 50.5463 37.4183 0
1 29.7725 71.6426 0
1 107.083 20.9084 0
1 25.6708 36.498 0
1 89.5977 37.9417 0
1 101.651 84.5503 0
1 39.0565 91.7967 0
1 68.4453 45.0196 0
100
Atoms. Timestep: 12000
1 62.5322 60.2315 0
1 68.0519 36.5378 0
1 11.6025 8.22709 0
1 69.2965 43.6357 0
1 37.0184 65.4127 0
1 31.3062 75.962 0
1 80.3452 90.7958 0
1 83.5238 73.3792 0
1 100.893 31.1868 0
1 106.675 70.2248 0
1 104.191 24.3146 0
1 40.8471 90.6728 0
1 95.2596 0.833316 0
1 96.6778 45.835 0
1 39.7947 23.6837 0
1 27.2022 14.0199 0
1 44.4252 30.0522 0
1 35.388 7.66562 0
1 12.8478 40.6192 0
1 39.1952 42.9774 0
1 5.8634 86.9303 0
1 49.3151 56.9166 0
1 54.7982 64.8421 0
1 88.8687 81.5555 0
1 61.3063 1.02096 0
1 5.28321 43.6536 0
1 91.0467 46.2963 0
1 90.1601 75.491 0
1 48.6409 88.0492 0
1 30.8961 25.6386 0
1 100.768 75.5684 0
1 90.833 45.0026 0
1 34.2357 47.2197 0
1 66.5745 65.996 0
1 10.9867 73.0257 0
1 42.1756 0.225997 0
1 65.9592 7.10012 0
1 52.8919 35.8507 0
1 56.1744 70.8638 0
1 2.92561 38.51 0
1 103.708 39.5592 0
1 29.7036 2.14457 0
1 55.8591 31.1192 0
1 107.093 21.3068 0
1 60.032 5.17235 0
1 67.6577 68.1513 0
1 83.1697 26.7157 0
1 64.8568 65.7644 0
1 93.0271 56.0074 0
1 97.3834 9.66623 0
1 10.6525 85.4505 0
1 8.84946 14.241 0
1 74.6608 45.9482 0
1 52.3457 4.25841 0
1 58.384 31.5294 0
1 63.6747 9.78352 0
1 17.0573 66.9123 0
1 44.3386 11.5612 0
1 25.7932 88.1009 0
1 101.987 75.7553 0
1 51.8165 73.6957 0
1 100.345 67.993 0
1 93.3902 49.5816 0
1 104.533 26.8007 0
1 86.6993 7.07903 0
1 89.1071 25.6901 0
1 102.064 55.9057 0
1 68.3622 42.6741 0
1 41.5266 45.7871 0
1 4.7588 46.8722 0
1 41.4778 48.0842 0
1 36.0214 91.5249 0
1 52.9392 18.3285 0
1 100.139 73.2974 0
1 71.9843 25.7928 0
1 48.5644 30.1662 0
1 64.8789 4.82251 0
1 75.4767 83.5036 0
1 104.29 35.5698 0
1 100.763 28.9961 0
1 34.5337 73.6942 0
1 84.4548 69.782 0
1 66.1921 81.9806 0
1 97.2826 83.8568 0
1 47.0172 30.04 0
1 56.1995 12.4029 0
1 77.4245 53.0595 0
1 62.5496 37.0231 0
1 30.7635 15.5257 0
1 17.8454 3.17477 0
1 42.8076 36.2086 0
1 51.2445 91.7703 0
1 46.0847 33.9976 0
1 23.639 82.1822 0
1 3.88293 2.44594 0
1 32.9767 41.4393 0
1 95.9576 44.0592 0
1 95.7546 87.963 0
1 35.1446 3.16639 0
1 65.9571 35.7936 0
100
Atoms. Timestep: 13000
1 67.6496 66.9336 0
1 56.3651 33.2871 0
1 15.1504 3.39148 0
1 62.9139 54.5837 0
1 37.3828 68.5112 0
1 30.1597 56.9844 0
1 84.5023 91.2199 0
1 95.8926 73.3356 0
1 95.689 32.6039 0
1 92.4766 69.3285 0
1 0.260866 28.5186 0
1 37.7626 77.5531 0
1 88.1183 0.263932 0
1 106.177 41.9502 0
1 45.2457 15.9262 0
1 20.3405 9.25948 0
1 53.0943 22.7585 0
1 43.2378 10.5228 0
1 5.07954 54.2139 0
1 40.2048 50.469 0
1 1.54446 83.4683 0
1 37.9823 52.8466 0
1 52.0001 72.1854 0
1 88.469 81.8314 0
1 58.3641 90.7276 0
1 8.83284 48.094 0
1 97.7391 45.3561 0
1 95.7068 76.6549 0
1 58.0095 84.9492 0
1 59.225 32.4374 0
1 95.4434 65.5568 0
1 88.6 43.1897 0
1 26.7055 40.1087 0
1 65.4686 77.8802 0
1 5.57065 66.4164 0
1 47.447 17.1148 0
1 73.1675 13.1096 0
1 58.6692 27.4874 0
1 45.117 77.2234 0
1 104.008 25.2175 0
1 9.06616 43.2302 0
1 31.373 8.46274 0
1 54.5131 23.6899 0
1 100.075 21.2494 0
1 53.6743 14.8771 0
1 65.5159 79.8527 0
1 82.914 23.4905 0
1 55.0119 60.277 0
1 93.9577 56.2004 0
1 99.2049 6.57167 0
1 10.5223 85.6455 0
1 9.90184 11.9942 0
1 71.5281 48.3177 0
1 55.1725 3.77014 0
1 42.9929 33.8146 0
1 61.6021 87.3103 0
1 16.6761 78.3566 0
1 43.1533 12.4447 0
1 19.1178 92.9982 0
1 98.5139 83.6191 0
1 66.7056 59.9899 0
1 106.385 58.6854 0
1 84.4874 49.9889 0
1 8.08936 25.5257 0
1 77.8494 13.5913 0
1 93.6731 27.3962 0
1 106.069 57.71 0
1 74.1535 30.9686 0
1 48.2535 42.7384 0
1 99.0386 52.9534 0
1 41.4379 50.3849 0
1 31.2008 90.6087 0
1 47.9469 19.0503 0
1 97.4764 76.6435 0
1 80.6338 31.8957 0
1 58.3499 18.5236 0
1 63.9027 2.82094 0
1 74.4854 76.8888 0
1 97.743 36.1661 0
1 89.8827 29.5702 0
1 33.066 68.2274 0
1 87.2265 70.8626 0
1 73.581 85.2467 0
1 105.743 81.0464 0
1 45.6719 24.7199 0
1 51.4588 16.5967 0
1 91.8067 60.2431 0
1 71.3053 38.0981 0
1 37.1509 29.5084 0
1 20.9222 6.74376 0
1 36.1413 52.5301 0
1 40.9962 92.2142 0
1 39.7582 38.2182 0
1 14.8813 88.4849 0
1 8.14488 77.0416 0
1 40.3009 46.4093 0
1 93.9485 38.7375 0
1 89.8578 91.3758 0
1 42.6914 9.01224 0
1 63.73 19.0244 0
100
Atoms. Timestep: 14000
1 72.8515 73.6022 0
1 42.5805 37.6799 0
1 19.2547 91.9398 0
1 56.5256 65.5176 0
1 35.9097 71.6292 0
1 30.3679 41.2932 0
1 88.2323 0.727568 0
1 0.779846 73.3404 0
1 81.4013 34.1448 0
1 80.5592 71.345 0
1 3.5906 32.8036 0
1 36.5158 64.4139 0
1 82.801 91.068 0
1 13.1048 29.598 0
1 43.3141 6.03146 0
1 9.44275 11.1369 0
1 57.9008 13.4955 0
1 51.2667 15.6417 0
1 10.7912 64.4917 0
1 38.9433 60.6676 0
1 9.31927 86.4013 0
1 25.6212 48.9634 0
1 49.2021 79.5288 0
1 88.0693 82.1073 0
1 55.4218 87.3738 0
1 12.4105 52.5694 0
1 104.407 44.5453 0
1 94.7282 76.7731 0
1 55.8449 81.6088 0
1 84.3259 38.1804 0
1 85.6672 65.0095 0
1 86.3915 41.2475 0
1 19.1752 32.9977 0
1 64.6632 89.7105 0
1 0.154548 59.807 0
1 45.7234 25.6799 0
1 73.1117 13.3157 0
1 65.8967 25.8646 0
1 33.7623 83.1928 0
1 101.788 15.8884 0
1 21.8808 46.9011 0
1 36.0716 23.8068 0
1 63.8421 9.85507 0
1 93.0566 21.1919 0
1 46.9941 23.9437 0
1 63.0748 91.6113 0
1 82.6582 20.2654 0
1 45.174 54.7617 0
1 91.6081 53.4587 0
1 101.026 3.4771 0
1 11.803 85.7332 0
1 11.2468 10.5458 0
1 70.2219 49.3742 0
1 57.9993 3.28187 0
1 24.6503 38.8408 0
1 68.5656 72.1294 0
1 16.295 89.8009 0
1 41.7878 18.9536 0
1 14.8678 8.89115 0
1 94.9842 91.4379 0
1 85.4863 59.0989 0
1 102.308 61.6448 0
1 75.5847 50.3962 0
1 24.8318 18.2115 0
1 76.2864 25.9116 0
1 98.2358 29.1458 0
1 106.68 50.5293 0
1 79.9279 19.2727 0
1 54.9804 39.6904 0
1 86.5705 59.4005 0
1 46.1286 53.3993 0
1 34.0901 78.4934 0
1 58.1787 31.73 0
1 101.957 80.812 0
1 88.678 39.8663 0
1 64.7852 91.9963 0
1 65.0346 0.665793 0
1 73.4097 70.3075 0
1 90.8352 36.8252 0
1 79.0069 30.1039 0
1 31.5984 62.7606 0
1 89.8873 70.5774 0
1 80.9699 88.5128 0
1 100.723 71.9001 0
1 44.7351 21.1796 0
1 47.6266 20.8286 0
1 105.89 67.7843 0
1 74.3337 28.011 0
1 44.5696 36.7341 0
1 16.678 5.01153 0
1 28.0129 65.2145 0
1 30.7479 92.658 0
1 33.4317 42.4388 0
1 3.46744 90.4463 0
1 12.4068 58.5768 0
1 47.653 51.4374 0
1 92.3003 33.3541 0
1 82.5642 1.27117 0