100
Atoms. Timestep: 0
1 0 0 0
1 0.584766 1.01284 0
1 1.16953 0 0
1 1.7543 1.01284 0
1 2.33906 0 0
1 2.92383 1.01284 0
1 3.5086 0 0
1 4.09336 1.01284 0
1 4.67813 0 0
1 5.26289 1.01284 0
1 5.84766 0 0
1 6.43242 1.01284 0
1 7.01719 0 0
1 7.60196 1.01284 0
1 8.18672 0 0
1 8.77149 1.01284 0
1 9.35625 0 0
1 9.94102 1.01284 0
1 10.5258 0 0
1 11.1106 1.01284 0
1 0 2.02569 0
1 0.584766 3.03853 0
1 1.16953 2.02569 0
1 1.7543 3.03853 0
1 2.33906 2.02569 0
1 2.92383 3.03853 0
1 3.5086 2.02569 0
1 4.09336 3.03853 0
1 4.67813 2.02569 0
1 5.26289 3.03853 0
1 5.84766 2.02569 0
1 6.43242 3.03853 0
1 7.01719 2.02569 0
1 7.60196 3.03853 0
1 8.18672 2.02569 0
1 8.77149 3.03853 0
1 9.35625 2.02569 0
1 9.94102 3.03853 0
1 10.5258 2.02569 0
1 11.1106 3.03853 0
1 0 4.05138 0
1 0.584766 5.06422 0
1 1.16953 4.05138 0
1 1.7543 5.06422 0
1 2.33906 4.05138 0
1 2.92383 5.06422 0
1 3.5086 4.05138 0
1 4.09336 5.06422 0
1 4.67813 4.05138 0
1 5.26289 5.06422 0
1 5.84766 4.05138 0
1 6.43242 5.06422 0
1 7.01719 4.05138 0
1 7.60196 5.06422 0
1 8.18672 4.05138 0
1 8.77149 5.06422 0
1 9.35625 4.05138 0
1 9.94102 5.06422 0
1 10.5258 4.05138 0
1 11.1106 5.06422 0
1 0 6.07707 0
1 0.584766 7.08991 0
1 1.16953 6.07707 0
1 1.7543 7.08991 0
1 2.33906 6.07707 0
1 2.92383 7.08991 0
1 3.5086 6.07707 0
1 4.09336 7.08991 0
1 4.67813 6.07707 0
1 5.26289 7.08991 0
1 5.84766 6.07707 0
1 6.43242 7.08991 0
1 7.01719 6.07707 0
1 7.60196 7.08991 0
1 8.18672 6.07707 0
1 8.77149 7.08991 0
1 9.35625 6.07707 0
1 9.94102 7.08991 0
1 10.5258 6.07707 0
1 11.1106 7.08991 0
1 0 8.10275 0
1 0.584766 9.1156 0
1 1.16953 8.10275 0
1 1.7543 9.1156 0
1 2.33906 8.10275 0
1 2.92383 9.1156 0
1 3.5086 8.10275 0
1 4.09336 9.1156 0
1 4.67813 8.10275 0
1 5.26289 9.1156 0
1 5.84766 8.10275 0
1 6.43242 9.1156 0
1 7.01719 8.10275 0
1 7.60196 9.1156 0
1 8.18672 8.10275 0
1 8.77149 9.1156 0
1 9.35625 8.10275 0
1 9.94102 9.1156 0
1 10.5258 8.10275 0
1 11.1106 9.1156 0
100
Atoms. Timestep: 100
1 11.0463 0.772429 0
1 0.4851 0.852237 0
1 1.14679 0.0191425 0
1 1.44959 0.973887 0
1 2.44141 0.255665 0
1 2.79965 1.38731 0
1 3.40104 0.534012 0
1 4.34301 1.13739 0
1 4.41469 9.81192 0
1 5.82533 1.14449 0
1 5.06466 0.42948 0
1 6.20522 9.88383 0
1 7.25219 9.85034 0
1 7.20669 0.815163 0
1 8.28759 10.1087 0
1 8.46633 1.00834 0
1 9.31798 0.491911 0
1 9.15058 1.71797 0
1 10.1373 10.1278 0
1 10.2077 1.26195 0
1 0.600534 1.89136 0
1 0.682907 2.95873 0
1 1.69461 1.97968 0
1 1.64702 3.01596 0
1 2.66567 2.40142 0
1 3.50544 3.28079 0
1 3.65039 2.05993 0
1 4.54673 2.86396 0
1 5.0151 1.87193 0
1 5.76681 2.60156 0
1 6.78141 1.69695 0
1 6.68362 3.12193 0
1 7.88715 1.88747 0
1 7.68543 2.94566 0
1 8.69595 2.65855 0
1 8.38255 3.92577 0
1 9.31225 3.41127 0
1 10.9516 2.71425 0
1 10.0116 2.30104 0
1 10.9341 1.81014 0
1 11.6052 3.67744 0
1 1.19221 5.21591 0
1 0.857178 4.15934 0
1 1.83862 4.28847 0
1 2.55162 3.65777 0
1 3.23814 4.5389 0
1 4.40437 3.95604 0
1 3.92171 5.29449 0
1 5.52317 3.62845 0
1 5.27687 4.61649 0
1 6.37975 4.25106 0
1 6.11055 5.30821 0
1 7.40726 3.96686 0
1 7.0261 5.09754 0
1 8.09516 5.04832 0
1 9.06211 5.2591 0
1 9.2837 4.37974 0
1 10.0934 4.9286 0
1 10.6963 4.02814 0
1 0.0367381 4.58992 0
1 0.17733 5.78745 0
1 0.295565 7.18853 0
1 0.993885 6.32502 0
1 1.18785 7.43958 0
1 2.30368 5.0922 0
1 2.21085 6.2853 0
1 3.06855 5.96786 0
1 3.01179 8.00963 0
1 4.11068 6.41814 0
1 5.11421 6.59441 0
1 4.98997 5.58649 0
1 5.98278 7.22674 0
1 6.2848 6.19153 0
1 7.41636 6.63386 0
1 8.78287 6.30642 0
1 8.8528 7.25955 0
1 9.79252 5.9899 0
1 9.92005 7.036 0
1 10.8865 5.5749 0
1 11.0627 6.79786 0
1 0.169109 8.11741 0
1 0.0987859 0.0546103 0
1 0.958404 8.98355 0
1 1.99923 9.49181 0
1 2.01869 8.33689 0
1 3.18608 9.37636 0
1 2.35089 7.2573 0
1 3.88656 8.70441 0
1 4.90513 8.57246 0
1 5.37582 9.47226 0
1 5.81545 8.15763 0
1 6.55154 9.0075 0
1 7.05762 7.88361 0
1 8.07365 9.01394 0
1 7.94232 7.50471 0
1 8.72226 8.30812 0
1 9.67043 8.10029 0
1 9.43471 9.22689 0
1 10.7263 8.14021 0
1 11.4839 8.99921 0
100
Atoms. Timestep: 200
1 10.3756 10.1025 0
1 0.293792 0.729731 0
1 0.899102 10.1216 0
1 1.2452 1.18524 0
1 2.24982 0.4933 0
1 2.29967 1.58007 0
1 3.20773 0.954421 0
1 4.37631 0.985907 0
1 3.80116 9.55018 0
1 6.45346 1.36129 0
1 5.25354 0.386192 0
1 6.23856 0.249155 0
1 7.07054 9.73625 0
1 7.29625 0.588084 0
1 7.98381 9.98349 0
1 8.07909 1.16602 0
1 8.86115 0.282613 0
1 9.10522 1.59902 0
1 9.65652 9.46481 0
1 9.94341 0.813291 0
1 0.401595 2.0775 0
1 1.0793 3.08888 0
1 1.37818 2.21253 0
1 2.18642 3.37046 0
1 2.5382 2.53109 0
1 3.93245 2.81864 0
1 3.80474 1.72801 0
1 4.91247 2.5769 0
1 5.49431 1.34816 0
1 6.09385 2.36438 0
1 7.25127 2.21389 0
1 6.66066 3.32174 0
1 8.4162 2.31914 0
1 7.70387 3.09376 0
1 9.42976 2.73601 0
1 8.09921 4.10914 0
1 9.93422 3.77468 0
1 10.7124 2.8262 0
1 10.102 2.03438 0
1 11.1223 1.5345 0
1 0.0426882 3.1382 0
1 1.03237 5.12124 0
1 1.27446 4.1966 0
1 2.0349 4.79491 0
1 3.14542 3.70515 0
1 3.61445 4.58656 0
1 4.35963 3.73304 0
1 3.81415 5.53461 0
1 5.53868 3.50637 0
1 4.90685 4.54257 0
1 6.09054 4.3753 0
1 5.44323 5.27158 0
1 7.11843 4.22137 0
1 6.64987 5.35901 0
1 8.10501 5.11181 0
1 9.90018 5.44916 0
1 9.19135 4.76958 0
1 10.3495 4.59802 0
1 10.9512 3.79209 0
1 0.152513 4.19613 0
1 0.487612 5.86478 0
1 0.384417 7.02938 0
1 1.4852 6.89058 0
1 1.52142 7.9207 0
1 2.87967 5.17781 0
1 1.8014 5.96076 0
1 3.41582 6.62126 0
1 3.40081 7.57945 0
1 4.29938 7.06632 0
1 5.57111 7.05093 0
1 4.81041 6.1069 0
1 6.0995 7.92073 0
1 6.12298 6.07139 0
1 7.3308 6.09445 0
1 8.29131 6.07582 0
1 8.84605 7.2861 0
1 9.75733 6.58852 0
1 9.98584 7.87812 0
1 10.9685 5.37596 0
1 11.0148 6.38291 0
1 0.248772 8.48288 0
1 0.00651423 9.47743 0
1 1.14446 8.83961 0
1 1.87889 9.67998 0
1 2.20377 8.5801 0
1 2.81224 9.55256 0
1 2.50561 7.03102 0
1 3.29865 8.6361 0
1 4.47793 8.9709 0
1 5.6659 9.47356 0
1 6.56087 8.72815 0
1 7.09567 7.85327 0
1 6.5816 6.94952 0
1 7.44612 8.87402 0
1 7.75796 7.04554 0
1 8.05168 8.04257 0
1 9.20692 8.42395 0
1 8.50534 9.17924 0
1 11.188 7.5275 0
1 10.7577 8.84328 0
100
Atoms. Timestep: 300
1 10.823 9.53668 0
1 0.140524 0.649756 0
1 0.697417 9.95001 0
1 1.18844 0.75065 0
1 2.22233 0.662781 0
1 2.24204 1.65022 0
1 3.20539 1.03832 0
1 4.33433 0.862162 0
1 3.58433 10.0656 0
1 6.32071 1.17115 0
1 4.88028 10.0157 0
1 5.60588 0.599751 0
1 6.29748 9.89782 0
1 6.95057 0.379035 0
1 8.1078 0.518492 0
1 7.56056 1.40217 0
1 9.95021 0.699725 0
1 8.72446 1.242 0
1 9.88594 9.34597 0
1 10.8722 0.352848 0
1 0.462582 1.526 0
1 0.669619 3.14259 0
1 1.13151 2.32014 0
1 1.71078 3.19307 0
1 2.6163 2.61818 0
1 3.70113 3.05376 0
1 4.19685 1.77887 0
1 4.9535 2.51877 0
1 5.27165 1.46146 0
1 5.96184 2.39559 0
1 7.1682 2.3361 0
1 6.66606 3.79497 0
1 8.12834 2.159 0
1 7.40368 3.28267 0
1 9.42486 2.49038 0
1 8.67887 3.37676 0
1 9.72618 3.67272 0
1 10.3234 2.81534 0
1 9.71467 1.58277 0
1 10.7461 1.64587 0
1 11.5186 2.48171 0
1 1.17771 5.35085 0
1 1.07957 4.31232 0
1 2.28792 4.76387 0
1 2.53266 3.65725 0
1 3.42869 4.13783 0
1 4.47059 3.52315 0
1 4.03956 6.15018 0
1 5.67473 3.35155 0
1 4.58321 4.45659 0
1 5.76284 4.35552 0
1 5.31306 5.20242 0
1 7.37839 4.57272 0
1 6.53482 5.26568 0
1 8.03854 5.26731 0
1 10.1421 5.86143 0
1 9.13669 4.99402 0
1 10.0683 4.62446 0
1 10.8453 3.78442 0
1 0.160803 4.22482 0
1 0.412368 6.04733 0
1 0.747433 7.32741 0
1 1.57003 6.49362 0
1 1.78003 7.57789 0
1 3.35128 5.34108 0
1 2.53529 5.72172 0
1 3.50017 6.96517 0
1 3.45095 7.99173 0
1 4.40959 7.23674 0
1 5.67243 7.07535 0
1 4.94796 6.35007 0
1 6.06382 8.16485 0
1 5.95219 6.04299 0
1 7.29648 5.7903 0
1 9.24535 6.2084 0
1 8.90644 7.5222 0
1 9.98133 6.87304 0
1 9.86011 7.8733 0
1 11.0999 5.09541 0
1 11.1087 6.38312 0
1 0.113954 8.26383 0
1 0.190972 9.2112 0
1 0.999626 8.50453 0
1 1.77378 9.80569 0
1 2.57724 8.70238 0
1 2.71378 9.70532 0
1 2.49074 6.86091 0
1 3.51732 9.07601 0
1 4.70121 8.21055 0
1 5.36548 9.04728 0
1 6.89185 9.07812 0
1 7.10883 8.07121 0
1 6.79137 6.74456 0
1 7.71073 9.57131 0
1 8.19742 6.28535 0
1 8.11828 8.20943 0
1 8.94794 8.89873 0
1 9.11974 0.0507337 0
1 10.8652 7.32345 0
1 10.7114 8.42573 0
100
Atoms. Timestep: 400
1 11.23 9.35828 0
1 0.506718 0.356906 0
1 0.541859 9.46737 0
1 1.33404 0.854108 0
1 2.21272 0.345008 0
1 2.26046 1.43049 0
1 3.27324 1.5652 0
1 4.19546 1.24589 0
1 3.34575 0.491751 0
1 6.49302 1.19298 0
1 4.35989 0.335668 0
1 5.58224 0.681203 0
1 5.55736 9.73457 0
1 7.02951 10.0101 0
1 8.48646 0.459145 0
1 7.90806 1.29255 0
1 10.2103 0.838737 0
1 8.91096 1.55946 0
1 10.0272 9.21692 0
1 11.1451 0.227696 0
1 0.253659 2.17001 0
1 0.436222 3.74829 0
1 1.29263 1.87932 0
1 1.08414 2.85551 0
1 2.30429 2.5677 0
1 3.60478 3.07618 0
1 4.24987 2.253 0
1 5.02355 2.95291 0
1 5.12174 1.61732 0
1 5.99633 2.22162 0
1 7.16398 2.04818 0
1 6.79614 4.04658 0
1 8.07948 2.25193 0
1 7.48224 3.05244 0
1 9.16496 2.49388 0
1 8.67946 3.575 0
1 9.47968 4.29496 0
1 9.93094 3.14641 0
1 9.98469 1.83412 0
1 11.1116 1.43497 0
1 10.8457 2.42271 0
1 1.7029 5.16051 0
1 1.39366 4.16501 0
1 2.5553 4.57903 0
1 2.56479 3.57062 0
1 3.41289 4.14187 0
1 4.33242 3.67561 0
1 4.93838 5.93872 0
1 6.24766 3.20752 0
1 4.62342 4.59447 0
1 5.30389 3.87315 0
1 5.68946 5.04281 0
1 7.54211 4.89434 0
1 6.61938 5.09479 0
1 8.14075 5.71712 0
1 10.0035 6.04065 0
1 8.4451 4.64041 0
1 10.0336 5.03576 0
1 11.0281 3.84561 0
1 0.112807 4.69009 0
1 0.714666 5.59979 0
1 0.915277 7.75366 0
1 1.2309 6.55867 0
1 2.05382 7.9568 0
1 3.54911 5.02232 0
1 2.46281 5.6473 0
1 3.60217 6.00767 0
1 3.18611 7.25477 0
1 4.15079 6.83887 0
1 5.73317 7.74744 0
1 5.10653 6.91748 0
1 6.06169 8.92538 0
1 5.90288 6.19166 0
1 7.07418 6.10298 0
1 9.04065 5.4204 0
1 8.73788 7.53543 0
1 8.91222 6.54462 0
1 9.66564 7.95739 0
1 10.9937 5.27253 0
1 11.2091 6.23336 0
1 11.5952 7.42848 0
1 0.241575 8.53149 0
1 1.33257 8.67843 0
1 1.88504 9.50882 0
1 2.7585 8.60954 0
1 2.97691 9.56526 0
1 2.2673 7.0155 0
1 3.91737 9.2662 0
1 4.39152 7.81113 0
1 5.10008 8.632 0
1 7.04025 9.02531 0
1 7.61393 7.67236 0
1 6.57852 7.02434 0
1 8.04917 9.66339 0
1 7.89251 6.67033 0
1 7.92348 8.5383 0
1 9.00463 9.18186 0
1 9.40571 0.111411 0
1 10.4958 7.08457 0
1 10.7584 8.27123 0
100
Atoms. Timestep: 500
1 11.3789 9.41561 0
1 0.560661 0.326615 0
1 0.628099 9.4911 0
1 1.50291 0.238314 0
1 2.67868 0.126366 0
1 2.22826 1.04625 0
1 3.43787 1.25805 0
1 4.36935 1.27955 0
1 3.69197 0.205613 0
1 6.32874 0.479715 0
1 4.51859 9.98402 0
1 5.25171 0.624537 0
1 5.42015 9.73227 0
1 7.29692 10.0305 0
1 8.68979 0.428919 0
1 7.33741 1.03922 0
1 10.4204 1.4005 0
1 9.25441 1.19524 0
1 10.3064 9.40745 0
1 10.751 0.196623 0
1 0.303108 2.0332 0
1 0.589932 3.56423 0
1 1.32923 1.34001 0
1 1.11074 2.74117 0
1 2.02286 2.1311 0
1 3.13391 2.31233 0
1 4.18787 2.79945 0
1 5.72699 3.07692 0
1 4.96678 2.09248 0
1 6.37566 1.97927 0
1 7.57808 2.03442 0
1 7.1418 3.93879 0
1 8.43473 1.61191 0
1 7.93563 3.1181 0
1 9.73091 2.20197 0
1 8.9594 2.7201 0
1 9.20493 4.23671 0
1 9.94207 3.16357 0
1 10.8799 2.34197 0
1 11.5056 1.1828 0
1 11.1969 3.97695 0
1 1.50114 5.51904 0
1 1.20528 4.29227 0
1 2.34579 4.49275 0
1 1.97116 3.51732 0
1 3.22124 3.28618 0
1 5.03516 3.78871 0
1 4.67756 5.75971 0
1 6.88767 3.01985 0
1 4.15342 4.33023 0
1 6.15061 4.17669 0
1 5.51009 5.10814 0
1 7.65745 5.07359 0
1 6.54743 5.40001 0
1 7.61773 6.13836 0
1 9.6302 6.51765 0
1 8.23503 4.23997 0
1 9.7469 5.2728 0
1 10.0977 4.15768 0
1 0.319779 4.58312 0
1 0.433004 5.48909 0
1 0.748234 7.32542 0
1 0.258506 6.49093 0
1 1.87097 7.70233 0
1 3.29281 5.14077 0
1 2.5498 5.75568 0
1 3.70225 6.13698 0
1 2.56762 6.9682 0
1 4.63301 6.84109 0
1 6.29295 8.65727 0
1 5.32265 7.57584 0
1 6.33425 9.58006 0
1 5.56811 6.61547 0
1 6.72762 6.70315 0
1 8.8279 5.43617 0
1 9.03937 7.45417 0
1 8.56732 6.41456 0
1 9.48103 8.58026 0
1 10.8482 5.05291 0
1 10.9309 6.18756 0
1 11.2558 7.42249 0
1 0.195143 8.2168 0
1 1.14319 8.38278 0
1 1.57924 9.38441 0
1 2.77265 8.19019 0
1 3.04268 9.27681 0
1 1.49161 6.55041 0
1 4.07686 9.11744 0
1 4.15822 7.82847 0
1 5.3659 8.64055 0
1 7.35508 8.93789 0
1 7.2527 8.05229 0
1 6.3699 7.7373 0
1 8.22513 9.66084 0
1 7.72239 7.24481 0
1 8.36381 8.59749 0
1 9.29186 9.48974 0
1 9.85861 0.424865 0
1 10.0681 7.55153 0
1 10.5123 8.42907 0
100
Atoms. Timestep: 600
1 11.4065 9.80125 0
1 0.67857 0.0818522 0
1 0.999602 9.25654 0
1 1.68812 0.0759308 0
1 2.63395 10.1031 0
1 1.65181 1.07879 0
1 2.85775 0.939667 0
1 3.93608 1.00161 0
1 3.64502 10.1132 0
1 6.83535 1.2867 0
1 4.71809 0.259026 0
1 5.64935 0.755123 0
1 5.65845 9.76778 0
1 7.63893 0.57505 0
1 8.8381 0.618972 0
1 7.37697 2.19981 0
1 10.5836 1.61751 0
1 9.57308 1.88297 0
1 10.3301 9.52962 0
1 11.404 0.666709 0
1 0.779007 2.1777 0
1 0.526668 3.15689 0
1 0.599061 1.06582 0
1 1.72784 2.51651 0
1 2.37147 1.83191 0
1 3.74731 1.97554 0
1 4.29043 2.77164 0
1 5.31763 2.91718 0
1 4.71666 1.80453 0
1 5.7011 1.66957 0
1 8.37692 2.39992 0
1 6.68033 3.55551 0
1 8.27102 1.44533 0
1 7.80198 3.51966 0
1 10.4085 2.58871 0
1 9.26274 2.92183 0
1 9.07075 4.1603 0
1 10.0937 3.62891 0
1 11.3778 2.72097 0
1 11.4878 1.67691 0
1 11.2665 3.74578 0
1 1.81969 5.95949 0
1 1.88028 4.91366 0
1 2.81068 4.09765 0
1 1.74012 3.65781 0
1 2.5263 2.98588 0
1 4.53748 3.93358 0
1 3.89943 5.7437 0
1 6.31717 2.68744 0
1 3.43326 3.29997 0
1 5.656 4.08063 0
1 4.81505 4.86648 0
1 7.05238 4.66942 0
1 5.93746 5.34051 0
1 7.85721 5.49132 0
1 9.95074 6.64711 0
1 8.06872 4.55238 0
1 10.0831 5.72427 0
1 10.2242 4.75227 0
1 1.08026 4.33501 0
1 0.418724 5.8882 0
1 0.494759 7.44179 0
1 11.3363 6.68973 0
1 2.0713 7.86491 0
1 3.50282 4.71389 0
1 2.95999 5.68785 0
1 3.35886 6.90463 0
1 2.46599 6.68035 0
1 4.33492 6.67855 0
1 6.00791 8.65244 0
1 4.99724 7.75524 0
1 6.75305 10.1271 0
1 5.08795 5.90177 0
1 6.90665 6.58111 0
1 9.3397 5.09298 0
1 8.94928 7.22955 0
1 8.89648 6.09832 0
1 9.15707 8.41539 0
1 11.4541 4.80986 0
1 11.0043 5.67945 0
1 10.9705 7.64599 0
1 0.115327 8.585 0
1 1.17323 8.29645 0
1 1.9472 9.04103 0
1 3.01787 8.01509 0
1 3.04243 9.08726 0
1 1.35953 6.88283 0
1 4.10058 9.22277 0
1 4.16614 8.23783 0
1 4.94765 8.89414 0
1 7.21724 9.01879 0
1 7.05309 7.60212 0
1 5.94568 7.06955 0
1 8.45306 9.14001 0
1 7.93764 6.81892 0
1 8.15107 7.8138 0
1 9.29196 9.80544 0
1 10.317 0.549645 0
1 9.87496 7.66716 0
1 10.3659 8.5343 0
100
Atoms. Timestep: 700
1 11.4089 9.461 0
1 0.491273 0.218215 0
1 0.694085 9.29288 0
1 1.48811 0.0307238 0
1 2.56195 9.91784 0
1 1.31615 1.68612 0
1 2.34903 0.851448 0
1 4.66063 0.979958 0
1 3.74238 0.416062 0
1 7.33214 1.10974 0
1 4.79155 10.0913 0
1 5.90459 0.197302 0
1 5.96886 9.3447 0
1 8.14183 0.549587 0
1 9.08015 0.879178 0
1 7.42165 2.85289 0
1 10.1693 1.09421 0
1 8.95577 1.91867 0
1 10.0581 9.3977 0
1 10.7449 0.121674 0
1 0.455391 2.16837 0
1 0.678082 3.52549 0
1 0.140714 1.18231 0
1 1.67055 2.79441 0
1 2.32435 2.01924 0
1 3.50732 1.73191 0
1 4.32977 2.24434 0
1 5.78728 2.58212 0
1 5.33046 1.72945 0
1 6.27055 1.15388 0
1 8.49728 2.95241 0
1 6.67903 3.48928 0
1 7.79168 1.93486 0
1 7.66128 3.7777 0
1 10.1233 2.31749 0
1 9.68789 3.16224 0
1 8.87863 3.84416 0
1 10.1678 4.26112 0
1 11.2485 2.61841 0
1 10.894 1.78304 0
1 11.1659 4.01181 0
1 2.21221 6.092 0
1 2.09374 4.78386 0
1 2.79994 4.07795 0
1 1.67857 3.85577 0
1 2.88466 2.98726 0
1 4.96786 3.07908 0
1 3.90513 5.8605 0
1 6.66886 2.14756 0
1 4.02994 3.57491 0
1 5.875 4.5809 0
1 4.90925 4.21837 0
1 6.73961 5.35986 0
1 5.86104 5.60732 0
1 8.32131 5.64566 0
1 10.2293 6.95041 0
1 7.54832 4.81398 0
1 9.74873 6.15963 0
1 10.3067 5.27144 0
1 0.680259 4.60201 0
1 1.31682 5.40451 0
1 0.432147 7.38965 0
1 0.307219 6.35047 0
1 2.17001 7.88774 0
1 4.06206 4.73548 0
1 3.00807 5.42105 0
1 3.61683 6.73846 0
1 2.67479 6.9574 0
1 4.53068 7.27075 0
1 6.24051 8.42483 0
1 5.7989 7.54809 0
1 7.01088 0.104697 0
1 4.75245 5.32365 0
1 6.77504 6.3259 0
1 8.92332 4.77033 0
1 8.49789 7.59566 0
1 9.07963 6.82547 0
1 8.98461 8.56872 0
1 11.5352 5.00946 0
1 11.0413 5.98919 0
1 11.0366 7.52802 0
1 11.549 8.50356 0
1 1.19154 8.06367 0
1 1.73746 9.1598 0
1 3.24253 7.77212 0
1 2.88512 8.90982 0
1 1.37523 6.87163 0
1 3.78875 9.26135 0
1 4.15879 8.19365 0
1 4.84146 8.95227 0
1 7.12527 9.25207 0
1 7.0439 7.23423 0
1 5.51713 6.45873 0
1 8.14383 9.13264 0
1 7.85647 6.67873 0
1 7.31001 8.19597 0
1 9.04479 9.57087 0
1 9.6997 0.149481 0
1 9.78684 7.90602 0
1 10.4894 8.49381 0
100
Atoms. Timestep: 800
1 11.1124 9.12617 0
1 0.100102 9.88147 0
1 0.935588 9.24981 0
1 1.47038 10.118 0
1 2.4609 10.0172 0
1 1.01493 1.48775 0
1 1.81737 0.942719 0
1 5.31526 0.953902 0
1 4.12661 0.940888 0
1 7.28284 1.42439 0
1 4.86947 10.0805 0
1 5.87455 9.91901 0
1 6.40186 8.714 0
1 7.79408 0.490283 0
1 8.71914 0.793865 0
1 7.66711 3.05343 0
1 9.95714 1.68582 0
1 9.0618 1.94635 0
1 10.0837 9.37964 0
1 10.895 0.0853041 0
1 0.147173 2.19998 0
1 0.955117 3.14304 0
1 0.491405 0.704727 0
1 1.67203 2.51129 0
1 2.94316 2.09566 0
1 2.84558 1.00206 0
1 3.89991 2.00201 0
1 5.86304 2.95457 0
1 5.33585 2.12885 0
1 6.18567 1.60459 0
1 8.66788 2.79871 0
1 6.66394 3.72886 0
1 7.93695 2.03948 0
1 7.60921 4.16648 0
1 10.8971 2.51367 0
1 9.66757 2.66751 0
1 8.66312 3.73148 0
1 10.3045 4.49935 0
1 10.2101 3.43084 0
1 11.1833 1.06131 0
1 11.5638 3.38935 0
1 2.46273 6.1442 0
1 1.66522 4.89126 0
1 3.09637 4.24049 0
1 1.77966 3.72367 0
1 2.58923 3.12177 0
1 4.71255 3.04994 0
1 4.08583 5.38851 0
1 6.77016 2.5198 0
1 3.76672 3.31365 0
1 5.93731 4.7162 0
1 5.16614 3.93875 0
1 6.83959 4.97843 0
1 6.16596 5.79323 0
1 8.67808 6.00227 0
1 10.0731 7.34564 0
1 8.09316 5.01001 0
1 9.84436 6.42486 0
1 9.83726 5.48233 0
1 0.522861 4.07696 0
1 1.49687 5.8126 0
1 0.492349 6.80017 0
1 0.220427 5.78319 0
1 2.23214 8.09921 0
1 4.17967 4.29924 0
1 3.04058 5.15961 0
1 3.61982 6.36152 0
1 2.94546 7.07529 0
1 4.1048 7.4617 0
1 5.58506 7.95043 0
1 5.51359 6.92432 0
1 6.68508 0.61524 0
1 4.97737 4.99526 0
1 7.33777 6.00871 0
1 8.98916 4.94946 0
1 8.34682 8.1786 0
1 9.05729 7.23631 0
1 8.96645 9.00562 0
1 11.2703 4.82877 0
1 10.6654 6.08089 0
1 11.0725 7.1707 0
1 0.117076 7.80857 0
1 1.07461 8.14674 0
1 1.96201 9.19116 0
1 3.26282 8.02454 0
1 2.99963 9.00919 0
1 1.77444 7.08888 0
1 3.86034 9.66625 0
1 4.26747 8.69538 0
1 5.30617 8.86475 0
1 6.90491 9.6586 0
1 6.53485 7.17446 0
1 5.17582 5.92468 0
1 7.91806 9.51847 0
1 7.83027 7.00782 0
1 7.25796 8.3739 0
1 8.80078 10.0141 0
1 9.8844 0.451648 0
1 9.66098 8.26442 0
1 10.7739 8.17213 0
100
Atoms. Timestep: 900
1 10.8583 9.52406 0
1 0.230556 9.93077 0
1 0.566258 8.96835 0
1 1.375 9.79056 0
1 2.35476 10.1149 0
1 0.951124 1.76289 0
1 2.00719 0.99384 0
1 5.34619 0.493431 0
1 4.14416 0.657955 0
1 7.7584 2.15196 0
1 4.53144 9.89899 0
1 5.53113 9.61483 0
1 5.97537 8.61229 0
1 7.35218 10.0676 0
1 8.04695 1.09594 0
1 7.6284 3.37155 0
1 10.9625 1.47931 0
1 9.96659 2.21147 0
1 9.3545 9.84679 0
1 10.3275 0.37434 0
1 0.0234655 2.18369 0
1 0.589402 2.90773 0
1 0.754587 0.81563 0
1 1.76814 2.41522 0
1 2.70555 1.83535 0
1 3.04057 0.895352 0
1 3.68087 1.71633 0
1 5.94216 2.9159 0
1 4.88024 1.57678 0
1 6.41316 1.31484 0
1 8.63538 3.20265 0
1 6.30003 3.79977 0
1 8.75919 1.99123 0
1 7.4632 4.34238 0
1 11.0923 2.94942 0
1 9.87345 3.42389 0
1 8.41922 4.23462 0
1 9.57011 4.63762 0
1 10.4272 4.17262 0
1 11.3715 0.60502 0
1 11.5619 3.70755 0
1 2.61267 6.12562 0
1 1.44848 4.38454 0
1 2.61675 4.11689 0
1 1.7232 3.37223 0
1 2.68524 3.09244 0
1 4.87476 2.84511 0
1 3.89175 4.84894 0
1 6.68794 2.33362 0
1 3.79287 2.89176 0
1 6.1442 4.82669 0
1 5.28208 4.1238 0
1 7.09432 5.31957 0
1 5.64207 5.79907 0
1 8.5931 6.80208 0
1 10.5991 7.36644 0
1 8.26421 5.28535 0
1 9.9522 6.65801 0
1 10.5859 5.81069 0
1 0.448508 4.38688 0
1 1.73497 6.39099 0
1 0.707687 6.76256 0
1 1.05709 5.49733 0
1 2.62567 8.03561 0
1 3.9404 3.85994 0
1 2.70278 5.12755 0
1 3.45794 5.79943 0
1 3.52202 6.85205 0
1 4.42799 7.14848 0
1 5.83639 7.63451 0
1 5.51936 6.73743 0
1 6.401 0.258639 0
1 4.94807 5.00365 0
1 7.37211 6.35204 0
1 9.19888 5.69812 0
1 8.3395 8.27298 0
1 9.29209 7.51345 0
1 8.64276 9.14309 0
1 11.2234 4.75566 0
1 0.120484 5.75941 0
1 11.2661 6.67195 0
1 11.6919 7.64029 0
1 1.36225 7.75548 0
1 1.80607 8.68896 0
1 4.04789 8.02965 0
1 2.87554 8.97989 0
1 2.52107 7.11178 0
1 3.53379 10.003 0
1 3.89063 9.02682 0
1 5.05802 8.49108 0
1 6.58358 9.39856 0
1 6.53016 6.95054 0
1 4.55348 6.12418 0
1 7.49489 8.81659 0
1 7.79494 7.47383 0
1 6.86156 7.93268 0
1 8.49977 0.135846 0
1 9.37292 0.986695 0
1 9.71164 8.47292 0
1 10.9118 8.39018 0
100
Atoms. Timestep: 1000
1 10.9531 9.7034 0
1 0.370443 9.86837 0
1 0.52065 8.89809 0
1 1.29774 9.65826 0
1 1.57074 0.495644 0
1 0.409375 2.72357 0
1 1.22972 1.72056 0
1 5.58937 0.237063 0
1 3.76454 0.610927 0
1 7.77701 2.24151 0
1 4.60882 9.9775 0
1 5.63611 9.31402 0
1 6.08 8.44334 0
1 7.36442 0.00289742 0
1 7.5674 1.19005 0
1 7.76893 3.57952 0
1 10.2384 1.8486 0
1 9.57662 2.57835 0
1 9.28966 0.0279384 0
1 10.2891 0.567264 0
1 11.3886 1.69728 0
1 0.945356 3.5504 0
1 0.508912 0.959461 0
1 1.5764 2.72236 0
1 2.1151 1.29861 0
1 2.7486 0.200609 0
1 3.00913 1.31298 0
1 5.80702 2.52745 0
1 4.66882 1.31348 0
1 5.56927 1.51958 0
1 8.66258 3.15742 0
1 6.88346 2.82365 0
1 8.52822 1.61928 0
1 7.05587 4.35951 0
1 10.7022 2.87173 0
1 9.946 3.63711 0
1 8.11603 4.47978 0
1 9.23405 4.55494 0
1 10.4406 4.46512 0
1 11.3306 0.558709 0
1 11.5729 3.51447 0
1 2.65397 6.02001 0
1 1.74086 4.28481 0
1 3.76781 3.17576 0
1 2.39723 3.30474 0
1 2.37523 2.25291 0
1 4.62737 2.76467 0
1 3.36881 4.06484 0
1 6.6502 1.72195 0
1 3.60752 2.04606 0
1 5.95062 4.50338 0
1 5.84719 3.5065 0
1 6.61771 5.46974 0
1 5.60018 5.54924 0
1 8.6903 6.84444 0
1 10.4301 7.74364 0
1 8.54874 5.73707 0
1 9.48875 7.26467 0
1 10.442 5.56994 0
1 0.641356 4.56517 0
1 1.68605 6.8638 0
1 0.452153 6.76333 0
1 1.59461 5.26908 0
1 2.93269 8.65999 0
1 4.53376 3.91355 0
1 2.62786 4.92266 0
1 4.20719 5.7569 0
1 3.77105 6.72468 0
1 4.70432 7.33075 0
1 5.76574 7.3909 0
1 6.11275 6.49706 0
1 6.55457 0.655242 0
1 4.94605 4.82112 0
1 7.42821 5.91439 0
1 9.53406 6.13084 0
1 8.7528 7.85694 0
1 9.62914 8.30801 0
1 9.0469 9.23315 0
1 11.3377 4.94072 0
1 0.505482 5.68155 0
1 11.2374 6.27245 0
1 0.0558684 8.00919 0
1 0.98576 7.68175 0
1 2.00481 8.41331 0
1 3.7852 7.99518 0
1 2.38086 9.45389 0
1 2.84555 7.19406 0
1 3.63807 9.62038 0
1 4.38846 8.9287 0
1 5.12853 8.23934 0
1 6.69051 9.41228 0
1 6.97599 7.2627 0
1 5.12667 6.48525 0
1 7.68837 9.09373 0
1 7.87734 7.46911 0
1 7.046 8.29819 0
1 8.39582 0.378185 0
1 9.44588 1.2278 0
1 10.1074 9.32794 0
1 10.8327 8.67518 0
100
Atoms. Timestep: 1100
1 10.9851 10.0666 0
1 0.298132 9.90844 0
1 0.00393293 9.04342 0
1 0.833364 8.29287 0
1 1.21362 0.0471879 0
1 0.208341 3.16393 0
1 1.11431 2.501 0
1 5.54852 0.275686 0
1 3.69526 0.648512 0
1 7.89587 2.68104 0
1 4.69594 9.90346 0
1 5.73166 9.1846 0
1 6.25762 8.15111 0
1 7.48859 0.28149 0
1 7.9833 1.24662 0
1 7.99946 3.68841 0
1 10.6074 1.67622 0
1 9.95426 2.57557 0
1 9.82514 9.83594 0
1 10.0534 0.700491 0
1 11.6723 2.20338 0
1 0.194172 4.23658 0
1 0.8147 1.3891 0
1 1.33044 3.4301 0
1 1.70332 1.4026 0
1 2.27575 0.0916975 0
1 2.74201 1.14303 0
1 5.86306 2.83235 0
1 4.689 0.947346 0
1 5.38755 1.98971 0
1 8.84634 2.94163 0
1 6.99259 3.12807 0
1 8.63199 1.84759 0
1 7.05916 4.25114 0
1 10.9112 2.7261 0
1 9.95343 3.50284 0
1 8.16844 4.74504 0
1 9.07779 4.101 0
1 9.77236 5.02814 0
1 11.454 0.879827 0
1 10.8159 4.1847 0
1 3.08685 5.97412 0
1 1.89504 4.43633 0
1 3.41517 2.78733 0
1 2.33222 3.2142 0
1 2.31147 2.20462 0
1 5.06058 3.3654 0
1 3.04336 3.91747 0
1 6.7151 2.18214 0
1 3.55782 1.72096 0
1 6.25374 4.96702 0
1 6.13817 3.77648 0
1 7.26122 5.44997 0
1 5.26065 5.38308 0
1 8.72823 6.51791 0
1 10.6688 6.79662 0
1 8.74474 5.39169 0
1 9.46724 7.79271 0
1 10.7491 5.54759 0
1 0.982972 4.7965 0
1 1.40618 6.57416 0
1 0.566597 7.19036 0
1 1.99532 5.34384 0
1 2.92555 8.98039 0
1 4.09846 3.54935 0
1 3.05101 4.89222 0
1 4.1291 5.24102 0
1 4.23136 6.2866 0
1 4.31595 7.50045 0
1 5.59824 7.37419 0
1 6.17251 5.95809 0
1 6.3118 0.871172 0
1 4.8235 4.38068 0
1 7.74223 6.23049 0
1 9.66834 6.26439 0
1 8.50635 8.06574 0
1 9.63944 8.78574 0
1 8.75013 9.33954 0
1 0.0320469 5.17046 0
1 0.718154 5.82598 0
1 11.5823 6.36604 0
1 11.5449 7.95959 0
1 1.63483 7.53625 0
1 2.44334 8.15594 0
1 3.37536 7.51507 0
1 1.70145 9.27852 0
1 2.55344 6.93278 0
1 3.80601 9.61885 0
1 3.99206 8.65064 0
1 5.00267 8.50023 0
1 6.68519 9.08304 0
1 6.58899 7.03922 0
1 5.32432 6.40529 0
1 7.74876 9.24392 0
1 7.76462 7.35829 0
1 7.20673 8.13608 0
1 8.41426 0.235184 0
1 9.12961 1.00802 0
1 10.7876 8.69893 0
1 10.528 7.7786 0
100
Atoms. Timestep: 1200
1 10.6046 9.81175 0
1 0.382511 10.1078 0
1 0.754724 9.11478 0
1 1.49045 8.03885 0
1 0.963235 0.937587 0
1 0.487656 2.81657 0
1 1.21165 1.98956 0
1 5.23447 0.257495 0
1 4.23932 0.644557 0
1 8.14291 1.54129 0
1 4.60319 9.67217 0
1 5.79723 9.29831 0
1 6.11933 8.28412 0
1 6.48183 0.139067 0
1 7.2631 0.823838 0
1 7.6705 3.42641 0
1 10.4598 1.50066 0
1 9.60069 2.50338 0
1 9.59234 9.29666 0
1 9.84771 0.370293 0
1 11.0011 2.45778 0
1 0.477135 3.96424 0
1 0.241296 1.65652 0
1 1.29283 3.33223 0
1 2.31695 1.18981 0
1 2.37124 0.135305 0
1 3.22354 0.627429 0
1 5.52768 2.73047 0
1 5.05143 1.38401 0
1 4.61228 2.32422 0
1 9.02746 3.87768 0
1 6.81826 2.75352 0
1 8.49255 2.44332 0
1 6.81513 3.94555 0
1 11.1968 3.39791 0
1 10.0729 3.42396 0
1 8.28281 4.65984 0
1 9.26414 4.91785 0
1 10.261 5.09726 0
1 11.2512 0.506561 0
1 10.9312 4.36427 0
1 3.39566 5.37176 0
1 2.01706 3.89413 0
1 3.71794 2.82069 0
1 1.9619 2.5875 0
1 2.84218 2.01916 0
1 4.70137 3.64602 0
1 2.75071 3.26887 0
1 7.30894 1.95741 0
1 3.83146 1.45841 0
1 6.08245 5.32647 0
1 5.91715 3.7002 0
1 7.29957 5.06543 0
1 5.03637 5.62135 0
1 8.78631 6.72332 0
1 11.202 6.88293 0
1 8.67338 5.70258 0
1 8.70016 8.68775 0
1 10.9723 5.81511 0
1 1.20125 4.77919 0
1 1.42389 6.79092 0
1 0.512876 7.10797 0
1 2.28619 5.16867 0
1 1.93777 9.15825 0
1 3.77007 3.87068 0
1 2.90901 4.36388 0
1 4.29546 4.90848 0
1 3.87534 6.16301 0
1 4.52634 7.03499 0
1 5.47932 7.54498 0
1 6.79382 6.06863 0
1 6.2425 1.46936 0
1 5.27783 4.56378 0
1 7.76816 6.58376 0
1 9.89803 6.2838 0
1 7.7757 9.13032 0
1 9.92744 8.38919 0
1 8.57676 9.67042 0
1 0.291113 5.11897 0
1 1.45871 5.80657 0
1 0.403526 6.11644 0
1 11.28 7.85212 0
1 2.31518 7.27179 0
1 2.47759 8.20112 0
1 3.42093 7.14145 0
1 1.33891 10.0709 0
1 2.60968 6.24552 0
1 3.03299 9.57927 0
1 3.72001 8.17712 0
1 4.84738 8.5826 0
1 6.85026 9.30116 0
1 6.37028 7.28329 0
1 5.7782 6.45654 0
1 7.72208 10.1131 0
1 8.11373 7.83709 0
1 7.04616 8.02875 0
1 8.72178 0.472017 0
1 9.1444 1.35232 0
1 11.1336 8.79236 0
1 9.99552 7.2574 0
100
Atoms. Timestep: 1300
1 10.3989 9.89471 0
1 0.0853629 9.83537 0
1 0.504481 8.77849 0
1 1.76693 7.57475 0
1 0.7395 0.656229 0
1 0.180078 2.73532 0
1 1.09052 1.62686 0
1 5.27875 0.122088 0
1 4.39599 0.555139 0
1 7.96277 1.3764 0
1 4.54169 9.48886 0
1 5.72831 9.34926 0
1 5.91101 8.21708 0
1 6.2891 0.156189 0
1 6.71074 1.11449 0
1 8.09608 3.36432 0
1 9.97008 1.87477 0
1 9.88964 2.86976 0
1 9.63315 8.94484 0
1 9.78764 0.674159 0
1 10.9176 1.99243 0
1 0.694513 3.77514 0
1 0.152799 1.64837 0
1 1.28328 2.82819 0
1 2.61842 0.916536 0
1 1.61358 0.352335 0
1 3.3725 0.322697 0
1 5.49177 2.89374 0
1 5.57515 1.00823 0
1 4.81768 1.64505 0
1 9.07485 4.10858 0
1 7.15843 3.90911 0
1 8.98894 3.07809 0
1 6.24163 4.89062 0
1 10.9338 3.26116 0
1 10.0994 3.81468 0
1 8.10111 4.49209 0
1 8.94923 5.22724 0
1 9.95937 4.70669 0
1 10.939 0.814662 0
1 11.4433 4.34485 0
1 3.28495 4.92893 0
1 1.87368 3.80904 0
1 3.57619 3.06165 0
1 1.91349 2.08231 0
1 2.97049 1.90972 0
1 4.86018 3.71617 0
1 2.39666 2.87182 0
1 7.123 2.36807 0
1 3.80259 1.43535 0
1 6.34067 5.89098 0
1 6.05385 3.94732 0
1 7.3818 5.48002 0
1 5.0356 5.75936 0
1 9.29105 7.32318 0
1 11.0034 6.55293 0
1 8.88281 6.25219 0
1 8.92098 8.25601 0
1 10.8497 5.39537 0
1 1.2245 4.70825 0
1 1.32285 6.39273 0
1 0.821283 7.39452 0
1 2.32637 4.60024 0
1 1.43927 8.5694 0
1 3.91139 3.99187 0
1 2.95582 3.90849 0
1 4.30721 4.89324 0
1 3.99093 5.92328 0
1 4.25152 7.32406 0
1 5.24002 7.34794 0
1 7.27342 6.41723 0
1 6.19854 2.04157 0
1 5.26315 4.62275 0
1 7.89129 7.18711 0
1 9.97645 5.7779 0
1 7.99865 9.24666 0
1 10.4117 8.3604 0
1 8.96816 9.75851 0
1 0.248065 5.38235 0
1 1.98899 5.59008 0
1 0.268809 6.65017 0
1 11.5088 7.96139 0
1 2.34235 6.61628 0
1 2.3623 8.4404 0
1 3.38286 6.74785 0
1 1.24276 9.52816 0
1 2.95215 5.80425 0
1 3.39117 9.21378 0
1 3.70292 8.10908 0
1 4.62821 8.46571 0
1 6.79542 9.39156 0
1 6.67226 7.28362 0
1 5.76652 6.64947 0
1 7.23448 0.316793 0
1 7.9618 8.19445 0
1 6.89178 8.2525 0
1 8.72243 0.711169 0
1 9.02812 1.94618 0
1 11.1223 9.017 0
1 10.2877 7.27531 0
100
Atoms. Timestep: 1400
1 10.1498 0.254508 0
1 11.4047 0.106087 0
1 0.535393 9.57118 0
1 1.87674 7.65665 0
1 0.895762 0.457418 0
1 0.18557 2.22143 0
1 0.85278 1.4401 0
1 5.34853 9.96736 0
1 4.69845 0.729668 0
1 7.62142 1.33066 0
1 4.64812 9.26303 0
1 6.0123 9.04327 0
1 5.11675 8.30119 0
1 6.35754 0.00634125 0
1 6.77527 0.96324 0
1 7.86574 3.53272 0
1 9.39193 2.12081 0
1 10.1544 3.03696 0
1 10.2936 9.13671 0
1 9.62358 1.22963 0
1 10.7665 2.05448 0
1 0.891394 3.03921 0
1 11.628 1.07323 0
1 1.53828 2.12714 0
1 2.35854 9.59061 0
1 2.30153 0.459729 0
1 3.94589 0.0364704 0
1 5.25917 2.40609 0
1 5.78339 1.28442 0
1 4.45721 1.93839 0
1 9.23781 4.61353 0
1 6.72535 4.19189 0
1 9.11951 3.53222 0
1 5.97885 4.90444 0
1 11.2888 3.07784 0
1 10.5118 4.12033 0
1 8.28033 4.41901 0
1 7.5114 6.49422 0
1 10.0842 5.02644 0
1 10.642 1.08083 0
1 0.00633994 3.95533 0
1 3.06042 4.45668 0
1 1.76795 3.55807 0
1 4.36426 3.14107 0
1 2.58789 1.59155 0
1 3.33714 2.22086 0
1 5.84505 3.65342 0
1 2.37462 2.703 0
1 7.53981 2.38265 0
1 3.19246 0.857702 0
1 6.60271 5.64798 0
1 6.77045 3.24664 0
1 7.4935 5.11986 0
1 5.54515 5.85336 0
1 9.48603 6.89549 0
1 10.5444 5.80315 0
1 8.60086 6.16221 0
1 9.12065 8.47191 0
1 11.1119 4.78355 0
1 1.06117 4.24186 0
1 0.866464 6.23942 0
1 0.566286 7.53685 0
1 2.05412 4.53774 0
1 1.32218 8.45437 0
1 4.17885 4.14074 0
1 3.41183 3.29162 0
1 3.83952 5.22264 0
1 3.99783 6.20618 0
1 4.0675 7.25715 0
1 4.98712 7.07892 0
1 7.12654 7.47249 0
1 6.45335 2.29108 0
1 4.85128 4.9817 0
1 8.61475 7.56638 0
1 9.53897 5.92188 0
1 8.55709 0.0265936 0
1 10.0018 7.93032 0
1 9.42829 9.69181 0
1 0.329216 5.20659 0
1 1.89602 5.52959 0
1 11.5594 6.62343 0
1 11.1676 8.11874 0
1 1.75868 6.44943 0
1 2.36708 8.57269 0
1 2.84746 6.84914 0
1 1.52655 9.82509 0