100
Atoms. Timestep: 0
1 0 0 0
1 0.524336 0.908177 0
1 1.04867 0 0
1 1.57301 0.908177 0
1 2.09735 0 0
1 2.62168 0.908177 0
1 3.14602 0 0
1 3.67036 0.908177 0
1 4.19469 0 0
1 4.71903 0.908177 0
1 5.24336 0 0
1 5.7677 0.908177 0
1 6.29204 0 0
1 6.81637 0.908177 0
1 7.34071 0 0
1 7.86505 0.908177 0
1 8.38938 0 0
1 8.91372 0.908177 0
1 9.43806 0 0
1 9.96239 0.908177 0
1 0 1.81635 0
1 0.524336 2.72453 0
1 1.04867 1.81635 0
1 1.57301 2.72453 0
1 2.09735 1.81635 0
1 2.62168 2.72453 0
1 3.14602 1.81635 0
1 3.67036 2.72453 0
1 4.19469 1.81635 0
1 4.71903 2.72453 0
1 5.24336 1.81635 0
1 5.7677 2.72453 0
1 6.29204 1.81635 0
1 6.81637 2.72453 0
1 7.34071 1.81635 0
1 7.86505 2.72453 0
1 8.38938 1.81635 0
1 8.91372 2.72453 0
1 9.43806 1.81635 0
1 9.96239 2.72453 0
1 0 3.63271 0
1 0.524336 4.54089 0
1 1.04867 3.63271 0
1 1.57301 4.54089 0
1 2.09735 3.63271 0
1 2.62168 4.54089 0
1 3.14602 3.63271 0
1 3.67036 4.54089 0
1 4.19469 3.63271 0
1 4.71903 4.54089 0
1 5.24336 3.63271 0
1 5.7677 4.54089 0
1 6.29204 3.63271 0
1 6.81637 4.54089 0
1 7.34071 3.63271 0
1 7.86505 4.54089 0
1 8.38938 3.63271 0
1 8.91372 4.54089 0
1 9.43806 3.63271 0
1 9.96239 4.54089 0
1 0 5.44906 0
1 0.524336 6.35724 0
1 1.04867 5.44906 0
1 1.57301 6.35724 0
1 2.09735 5.44906 0
1 2.62168 6.35724 0
1 3.14602 5.44906 0
1 3.67036 6.35724 0
1 4.19469 5.44906 0
1 4.71903 6.35724 0
1 5.24336 5.44906 0
1 5.7677 6.35724 0
1 6.29204 5.44906 0
1 6.81637 6.35724 0
1 7.34071 5.44906 0
1 7.86505 6.35724 0
1 8.38938 5.44906 0
1 8.91372 6.35724 0
1 9.43806 5.44906 0
1 9.96239 6.35724 0
1 0 7.26542 0
1 0.524336 8.1736 0
1 1.04867 7.26542 0
1 1.57301 8.1736 0
1 2.09735 7.26542 0
1 2.62168 8.1736 0
1 3.14602 7.26542 0
1 3.67036 8.1736 0
1 4.19469 7.26542 0
1 4.71903 8.1736 0
1 5.24336 7.26542 0
1 5.7677 8.1736 0
1 6.29204 7.26542 0
1 6.81637 8.1736 0
1 7.34071 7.26542 0
1 7.86505 8.1736 0
1 8.38938 7.26542 0
1 8.91372 8.1736 0
1 9.43806 7.26542 0
1 9.96239 8.1736 0
100
Atoms. Timestep: 100
1 0.000999375 0.0299732 0
1 0.543494 0.912688 0
1 1.02374 0.00658577 0
1 1.5969 0.902395 0
1 2.06251 9.06074 0
1 2.65497 0.889433 0
1 3.13403 9.04675 0
1 3.65119 0.870532 0
1 4.24286 9.05873 0
1 4.67851 0.930079 0
1 5.23858 0.0207649 0
1 5.75749 0.93367 0
1 6.25239 0.0237654 0
1 6.7981 0.879146 0
1 7.33539 0.0154326 0
1 7.86687 0.903392 0
1 8.39076 0.0458833 0
1 8.93132 0.930824 0
1 9.44028 0.0274892 0
1 9.95625 0.952768 0
1 0.000891439 1.82667 0
1 0.516998 2.69844 0
1 1.06383 1.81245 0
1 1.56214 2.70848 0
1 2.0829 1.82072 0
1 2.60359 2.6789 0
1 3.10836 1.81477 0
1 3.62751 2.7417 0
1 4.15687 1.79938 0
1 4.69683 2.74176 0
1 5.20216 1.83684 0
1 5.72671 2.75868 0
1 6.29385 1.81507 0
1 6.82598 2.71514 0
1 7.34324 1.75397 0
1 7.84838 2.72461 0
1 8.40096 1.82186 0
1 8.89159 2.74938 0
1 9.42946 1.85977 0
1 9.96644 2.69855 0
1 0.019495 3.59638 0
1 0.520284 4.54049 0
1 1.04356 3.6044 0
1 1.56735 4.54804 0
1 2.09024 3.59471 0
1 2.63338 4.55598 0
1 3.11518 3.61981 0
1 3.6973 4.52399 0
1 4.16427 3.58207 0
1 4.72388 4.54136 0
1 5.20531 3.64905 0
1 5.78607 4.57609 0
1 6.26236 3.63536 0
1 6.84625 4.58692 0
1 7.31225 3.6604 0
1 7.88654 4.52989 0
1 8.40975 3.61341 0
1 8.95103 4.5226 0
1 9.46108 3.64261 0
1 10.0126 4.53661 0
1 10.4698 5.45647 0
1 0.514121 6.38611 0
1 1.03836 5.47939 0
1 1.58765 6.30946 0
1 2.08327 5.39612 0
1 2.60332 6.30436 0
1 3.1526 5.42892 0
1 3.65266 6.3859 0
1 4.17821 5.48289 0
1 4.68842 6.38129 0
1 5.21832 5.46362 0
1 5.74726 6.30247 0
1 6.34168 5.44707 0
1 6.80446 6.32604 0
1 7.40525 5.46388 0
1 7.8815 6.35253 0
1 8.38866 5.4227 0
1 8.93316 6.34978 0
1 9.42793 5.44279 0
1 9.94871 6.37468 0
1 0.00679565 7.28392 0
1 0.503782 8.16818 0
1 1.01782 7.26765 0
1 1.56966 8.18231 0
1 2.06889 7.29684 0
1 2.61671 8.18494 0
1 3.08705 7.27508 0
1 3.66919 8.1763 0
1 4.17246 7.28526 0
1 4.77041 8.16131 0
1 5.27255 7.21809 0
1 5.8121 8.19947 0
1 6.30675 7.25739 0
1 6.83632 8.19881 0
1 7.38327 7.26847 0
1 7.90739 8.14868 0
1 8.45488 7.26652 0
1 8.95983 8.17813 0
1 9.4731 7.27309 0
1 10.0385 8.19988 0
100
Atoms. Timestep: 200
1 0.0408666 0.000795313 0
1 0.541424 0.910587 0
1 1.09112 0.0120389 0
1 1.59454 0.917614 0
1 2.08651 0.0694378 0
1 2.62066 0.902564 0
1 3.15134 0.0198301 0
1 3.61863 0.919114 0
1 4.19725 9.08151 0
1 4.71936 0.93619 0
1 5.25825 0.0107444 0
1 5.76998 0.935067 0
1 6.31643 0.00221986 0
1 6.84231 0.893053 0
1 7.34192 9.05269 0
1 7.86603 0.862039 0
1 8.43587 9.05636 0
1 8.88693 0.919294 0
1 9.46377 9.05716 0
1 9.9432 0.906466 0
1 0.00428046 1.82878 0
1 0.56604 2.71089 0
1 1.05909 1.80979 0
1 1.55422 2.75242 0
1 2.08658 1.79964 0
1 2.59391 2.73429 0
1 3.14539 1.82476 0
1 3.66073 2.71609 0
1 4.18606 1.8212 0
1 4.676 2.71786 0
1 5.26714 1.82967 0
1 5.75143 2.72093 0
1 6.32343 1.77757 0
1 6.87673 2.69777 0
1 7.37642 1.78713 0
1 7.91636 2.69831 0
1 8.40487 1.83003 0
1 8.95603 2.72008 0
1 9.47246 1.85019 0
1 9.99589 2.74886 0
1 10.4829 3.65167 0
1 0.509114 4.5589 0
1 1.01913 3.65834 0
1 1.54159 4.53315 0
1 2.08413 3.65857 0
1 2.60668 4.48701 0
1 3.15488 3.62946 0
1 3.73989 4.53988 0
1 4.21303 3.62972 0
1 4.75879 4.51014 0
1 5.32133 3.66311 0
1 5.76508 4.52223 0
1 6.3716 3.60584 0
1 6.81036 4.50297 0
1 7.3662 3.64923 0
1 7.85227 4.5865 0
1 8.41661 3.65093 0
1 8.89651 4.53392 0
1 9.44885 3.60307 0
1 9.93355 4.54858 0
1 10.4429 5.47329 0
1 0.494698 6.34061 0
1 1.05353 5.4498 0
1 1.5314 6.35898 0
1 2.15556 5.40284 0
1 2.59587 6.36999 0
1 3.16026 5.44849 0
1 3.67169 6.41527 0
1 4.13939 5.46018 0
1 4.70047 6.36657 0
1 5.24039 5.45956 0
1 5.78857 6.34193 0
1 6.29025 5.38166 0
1 6.83156 6.34498 0
1 7.30065 5.45731 0
1 7.85931 6.33937 0
1 8.35049 5.44372 0
1 8.86662 6.36864 0
1 9.41433 5.45977 0
1 9.92196 6.36336 0
1 0.0126102 7.24762 0
1 0.502903 8.20339 0
1 1.06317 7.28392 0
1 1.58984 8.18506 0
1 2.09842 7.23777 0
1 2.59833 8.17607 0
1 3.13673 7.28254 0
1 3.64751 8.21115 0
1 4.1574 7.31607 0
1 4.7057 8.20722 0
1 5.21817 7.29807 0
1 5.74677 8.1353 0
1 6.2915 7.22208 0
1 6.78476 8.16727 0
1 7.32621 7.2316 0
1 7.84268 8.18646 0
1 8.34939 7.27906 0
1 8.92809 8.1439 0
1 9.40997 7.2495 0
1 9.92111 8.13228 0
100
Atoms. Timestep: 300
1 0.0117855 9.0696 0
1 0.506229 0.921617 0
1 1.03518 9.04594 0
1 1.59662 0.859436 0
1 2.11673 9.04549 0
1 2.6425 0.88189 0
1 3.17592 0.0251155 0
1 3.68847 0.894467 0
1 4.23652 9.05048 0
1 4.72261 0.896925 0
1 5.27282 9.07619 0
1 5.7445 0.877901 0
1 6.28141 9.0357 0
1 6.79645 0.922674 0
1 7.30295 0.0214126 0
1 7.84483 0.96166 0
1 8.35891 9.06491 0
1 8.86323 0.930165 0
1 9.42051 0.0174357 0
1 9.99028 0.897559 0
1 0.00358334 1.81973 0
1 0.512909 2.75819 0
1 1.06036 1.75498 0
1 1.52789 2.71123 0
1 2.07715 1.7825 0
1 2.61942 2.66754 0
1 3.1108 1.78355 0
1 3.67874 2.70055 0
1 4.18057 1.80247 0
1 4.72041 2.73994 0
1 5.22025 1.79284 0
1 5.72429 2.74766 0
1 6.20533 1.90272 0
1 6.80434 2.76544 0
1 7.25363 1.85968 0
1 7.83687 2.75129 0
1 8.35014 1.81559 0
1 8.90269 2.73828 0
1 9.38202 1.82948 0
1 9.92413 2.74151 0
1 10.4645 3.64692 0
1 0.508276 4.51186 0
1 1.05066 3.64405 0
1 1.58719 4.52396 0
1 2.16455 3.61278 0
1 2.64401 4.5278 0
1 3.1851 3.6537 0
1 3.67437 4.56536 0
1 4.2002 3.62626 0
1 4.74328 4.54348 0
1 5.21487 3.618 0
1 5.76913 4.57453 0
1 6.30737 3.65756 0
1 6.79808 4.54231 0
1 7.35304 3.65279 0
1 7.84324 4.55156 0
1 8.35119 3.63185 0
1 8.87344 4.53494 0
1 9.47159 3.63245 0
1 9.94048 4.52487 0
1 10.4675 5.42666 0
1 0.53851 6.33677 0
1 1.04896 5.41841 0
1 1.57412 6.31345 0
1 2.11669 5.44868 0
1 2.65617 6.36679 0
1 3.15397 5.45307 0
1 3.71513 6.38818 0
1 4.19835 5.4758 0
1 4.75478 6.3727 0
1 5.28876 5.46438 0
1 5.75882 6.37764 0
1 6.30751 5.46984 0
1 6.79452 6.34149 0
1 7.3382 5.46898 0
1 7.9161 6.36022 0
1 8.36501 5.48649 0
1 8.98333 6.35887 0
1 9.42066 5.39643 0
1 9.98499 6.39193 0
1 10.4642 7.25097 0
1 0.521099 8.19215 0
1 1.02441 7.27045 0
1 1.59804 8.17599 0
1 2.09093 7.265 0
1 2.68646 8.19143 0
1 3.17396 7.27103 0
1 3.68444 8.18165 0
1 4.2168 7.29059 0
1 4.74496 8.16396 0
1 5.2347 7.30353 0
1 5.82051 8.1497 0
1 6.31192 7.25821 0
1 6.84124 8.13442 0
1 7.35827 7.27594 0
1 7.8689 8.1666 0
1 8.37511 7.23887 0
1 8.92567 8.17472 0
1 9.43863 7.28099 0
1 9.96901 8.16048 0
100
Atoms. Timestep: 400
1 0.0431134 9.05652 0
1 0.53557 0.894294 0
1 1.07416 9.07705 0
1 1.57932 0.911093 0
1 2.09678 9.08073 0
1 2.62129 0.898262 0
1 3.13295 0.00631998 0
1 3.65908 0.923868 0
1 4.23836 0.0204414 0
1 4.68766 0.892435 0
1 5.23443 9.04354 0
1 5.76891 0.85752 0
1 6.29041 0.00430158 0
1 6.76675 0.886986 0
1 7.33344 0.00859418 0
1 7.78636 0.920247 0
1 8.3584 0.0228362 0
1 8.94072 0.915093 0
1 9.42051 0.00187177 0
1 9.97647 0.926276 0
1 0.0396468 1.81322 0
1 0.53212 2.75447 0
1 1.03612 1.83344 0
1 1.62338 2.72892 0
1 2.09861 1.78514 0
1 2.64983 2.7471 0
1 3.15445 1.84049 0
1 3.69245 2.67469 0
1 4.19913 1.81015 0
1 4.69496 2.68613 0
1 5.23835 1.81191 0
1 5.77158 2.71278 0
1 6.32028 1.81431 0
1 6.83338 2.71688 0
1 7.38607 1.86358 0
1 7.91377 2.74165 0
1 8.43075 1.76315 0
1 8.92113 2.69903 0
1 9.4698 1.81631 0
1 10.025 2.69793 0
1 10.4057 3.66161 0
1 0.551131 4.51579 0
1 1.10435 3.63007 0
1 1.58155 4.56829 0
1 2.13745 3.65187 0
1 2.64763 4.62157 0
1 3.13403 3.60409 0
1 3.70268 4.53296 0
1 4.18057 3.60173 0
1 4.75704 4.51795 0
1 5.28184 3.60222 0
1 5.81108 4.54289 0
1 6.31974 3.60638 0
1 6.82742 4.61089 0
1 7.33558 3.65269 0
1 7.84757 4.51114 0
1 8.3955 3.64047 0
1 8.92339 4.56708 0
1 9.40656 3.60083 0
1 9.94608 4.5648 0
1 0.0186323 5.41352 0
1 0.474558 6.3387 0
1 1.048 5.46606 0
1 1.56711 6.35109 0
1 2.08693 5.45763 0
1 2.61034 6.3693 0
1 3.12534 5.48936 0
1 3.62016 6.34827 0
1 4.16926 5.48815 0
1 4.69445 6.35334 0
1 5.22149 5.4666 0
1 5.74471 6.36472 0
1 6.30677 5.49532 0
1 6.7825 6.37217 0
1 7.31307 5.48284 0
1 7.81738 6.35367 0
1 8.35395 5.42921 0
1 8.9073 6.32804 0
1 9.43749 5.46406 0
1 9.94687 6.36227 0
1 0.0284431 7.25666 0
1 0.477726 8.17229 0
1 1.06954 7.28083 0
1 1.56945 8.163 0
1 2.10797 7.28303 0
1 2.64083 8.1829 0
1 3.11371 7.26376 0
1 3.68826 8.21952 0
1 4.18363 7.2448 0
1 4.68514 8.17271 0
1 5.22093 7.25483 0
1 5.74977 8.17176 0
1 6.24432 7.2724 0
1 6.7947 8.1461 0
1 7.37952 7.2373 0
1 7.85225 8.17853 0
1 8.41405 7.21221 0
1 8.87747 8.16188 0
1 9.45293 7.27867 0
1 9.93697 8.19451 0
100
Atoms. Timestep: 500
1 10.4464 9.05789 0
1 0.535689 0.904431 0
1 1.05926 9.0568 0
1 1.55336 0.903264 0
1 2.07796 0.0152799 0
1 2.62782 0.915736 0
1 3.142 9.07329 0
1 3.6686 0.908807 0
1 4.19509 0.00482778 0
1 4.71724 0.93016 0
1 5.26398 0.0405015 0
1 5.76501 0.977488 0
1 6.27118 9.07527 0
1 6.83667 0.866004 0
1 7.33329 0.0208375 0
1 7.85994 0.916545 0
1 8.36448 9.05254 0
1 8.88342 0.888443 0
1 9.38229 9.06007 0
1 9.97367 0.871631 0
1 10.4665 1.81547 0
1 0.485421 2.71221 0
1 1.05063 1.83178 0
1 1.47261 2.78102 0
1 2.06859 1.84701 0
1 2.57985 2.74333 0
1 3.07159 1.83519 0
1 3.61933 2.74085 0
1 4.09529 1.81789 0
1 4.69217 2.7197 0
1 5.20586 1.8124 0
1 5.74987 2.71422 0
1 6.3296 1.80033 0
1 6.79876 2.76475 0
1 7.33924 1.79596 0
1 7.85925 2.72018 0
1 8.40636 1.80105 0
1 8.91231 2.70426 0
1 9.45916 1.81508 0
1 9.97187 2.71001 0
1 0.00597757 3.58246 0
1 0.494438 4.5605 0
1 0.979373 3.67484 0
1 1.55457 4.52536 0
1 2.07315 3.63656 0
1 2.59496 4.56632 0
1 3.12815 3.6626 0
1 3.68234 4.52864 0
1 4.14907 3.58805 0
1 4.73195 4.51479 0
1 5.27219 3.63532 0
1 5.77074 4.56698 0
1 6.29181 3.68822 0
1 6.81846 4.56629 0
1 7.33459 3.66091 0
1 7.87484 4.54558 0
1 8.42361 3.61034 0
1 8.93351 4.54508 0
1 9.44278 3.62472 0
1 9.97998 4.53465 0
1 0.0324846 5.45157 0
1 0.584112 6.35288 0
1 1.05798 5.42581 0
1 1.5866 6.3663 0
1 2.10824 5.46769 0
1 2.62524 6.40454 0
1 3.12607 5.45423 0
1 3.6503 6.36292 0
1 4.19419 5.3849 0
1 4.66058 6.35326 0
1 5.23471 5.49217 0
1 5.77136 6.36915 0
1 6.28463 5.47604 0
1 6.82168 6.36327 0
1 7.32418 5.42406 0
1 7.92607 6.33427 0
1 8.42225 5.43537 0
1 8.99784 6.32595 0
1 9.47546 5.43708 0
1 10.0007 6.31637 0
1 0.00934053 7.24211 0
1 0.565135 8.16096 0
1 1.06088 7.28037 0
1 1.63631 8.17837 0
1 2.08531 7.27265 0
1 2.6652 8.19287 0
1 3.17963 7.24897 0
1 3.67117 8.13077 0
1 4.19143 7.27499 0
1 4.74201 8.16398 0
1 5.22873 7.2737 0
1 5.78973 8.17638 0
1 6.32413 7.30642 0
1 6.83753 8.21908 0
1 7.37242 7.23142 0
1 7.90917 8.18576 0
1 8.40491 7.27759 0
1 8.95829 8.12801 0
1 9.44729 7.2146 0
1 10.0017 8.17287 0
100
Atoms. Timestep: 600
1 10.4647 9.07892 0
1 0.512764 0.927855 0
1 1.03875 9.06236 0
1 1.55193 0.88107 0
1 2.126 9.04237 0
1 2.62131 0.871948 0
1 3.18823 9.07773 0
1 3.66719 0.903449 0
1 4.19788 9.04965 0
1 4.74114 0.920316 0
1 5.26757 9.03344 0
1 5.74444 0.895337 0
1 6.31949 0.00400364 0
1 6.85728 0.909845 0
1 7.34217 9.07206 0
1 7.88354 0.930078 0
1 8.38885 0.0263109 0
1 8.93863 0.936773 0
1 9.45059 0.00873879 0
1 9.98297 0.932446 0
1 10.4842 1.82615 0
1 0.556633 2.71905 0
1 1.09579 1.78958 0
1 1.57242 2.77261 0
1 2.13473 1.80682 0
1 2.57724 2.76434 0
1 3.14725 1.81448 0
1 3.65184 2.73863 0
1 4.18437 1.81417 0
1 4.76077 2.69432 0
1 5.27203 1.80161 0
1 5.78609 2.75719 0
1 6.309 1.81264 0
1 6.8336 2.69559 0
1 7.36794 1.83055 0
1 7.88852 2.73909 0
1 8.38632 1.83571 0
1 8.96291 2.75086 0
1 9.46079 1.84903 0
1 9.98344 2.74355 0
1 0.0285156 3.64853 0
1 0.518975 4.5176 0
1 1.04573 3.6685 0
1 1.5827 4.58017 0
1 2.11365 3.66224 0
1 2.64492 4.49542 0
1 3.17191 3.66052 0
1 3.68989 4.54616 0
1 4.20222 3.61203 0
1 4.71195 4.55968 0
1 5.22412 3.65414 0
1 5.76088 4.55188 0
1 6.32493 3.61246 0
1 6.80425 4.56433 0
1 7.34473 3.62432 0
1 7.87644 4.53818 0
1 8.35819 3.63185 0
1 8.92263 4.50284 0
1 9.45578 3.62184 0
1 9.95905 4.51132 0
1 0.0143918 5.42482 0
1 0.507131 6.36078 0
1 1.03709 5.44321 0
1 1.54952 6.315 0
1 2.12405 5.42583 0
1 2.58953 6.34116 0
1 3.14086 5.43359 0
1 3.62265 6.367 0
1 4.18348 5.46645 0
1 4.68813 6.36262 0
1 5.26583 5.44719 0
1 5.74394 6.34938 0
1 6.27889 5.42798 0
1 6.85742 6.39021 0
1 7.34437 5.45287 0
1 7.90053 6.32345 0
1 8.3774 5.42209 0
1 8.89921 6.38251 0
1 9.46313 5.46262 0
1 9.93591 6.40776 0
1 0.00402667 7.26388 0
1 0.437685 8.203 0
1 1.03192 7.27109 0
1 1.5175 8.18833 0
1 2.06646 7.28881 0
1 2.55638 8.13609 0
1 3.09579 7.23457 0
1 3.65086 8.14133 0
1 4.14161 7.25825 0
1 4.71893 8.1307 0
1 5.24082 7.2798 0
1 5.78072 8.18646 0
1 6.286 7.24689 0
1 6.79631 8.1666 0
1 7.36002 7.29057 0
1 7.82537 8.18064 0
1 8.3995 7.28093 0
1 8.86316 8.21094 0
1 9.45273 7.25837 0
1 9.90119 8.14377 0
100
Atoms. Timestep: 700
1 10.4515 9.05717 0
1 0.498307 0.850689 0
1 1.02443 9.07689 0
1 1.57723 0.88061 0
1 2.11282 0.0195963 0
1 2.66735 0.951462 0
1 3.18318 0.0153382 0
1 3.70923 0.922945 0
1 4.20783 9.06829 0
1 4.75478 0.89161 0
1 5.24962 9.08121 0
1 5.7913 0.898815 0
1 6.30502 9.06986 0
1 6.7712 0.925361 0
1 7.34401 0.00176011 0
1 7.86611 0.905206 0
1 8.3708 9.07383 0
1 8.92704 0.932925 0
1 9.39667 0.00880499 0
1 9.94776 0.916664 0
1 0.00355118 1.79411 0
1 0.481955 2.73644 0
1 1.00226 1.79688 0
1 1.57817 2.75307 0
1 2.06216 1.81387 0
1 2.61127 2.71478 0
1 3.14494 1.82211 0
1 3.65203 2.7556 0
1 4.17629 1.86276 0
1 4.71437 2.79338 0
1 5.20394 1.85072 0
1 5.76608 2.70652 0
1 6.29313 1.81301 0
1 6.80926 2.70451 0
1 7.34211 1.79834 0
1 7.86345 2.69664 0
1 8.39805 1.80349 0
1 8.87993 2.72729 0
1 9.40195 1.80558 0
1 9.94358 2.71107 0
1 10.4675 3.67887 0
1 0.517466 4.55339 0
1 1.0427 3.68813 0
1 1.54664 4.5893 0
1 2.09117 3.68378 0
1 2.6502 4.54595 0
1 3.07706 3.60244 0
1 3.69661 4.57217 0
1 4.2331 3.64458 0
1 4.75033 4.53337 0
1 5.2598 3.65024 0
1 5.75809 4.56795 0
1 6.30002 3.62725 0
1 6.8193 4.49898 0
1 7.33051 3.60048 0
1 7.86477 4.53767 0
1 8.3649 3.61178 0
1 8.86386 4.55582 0
1 9.38764 3.60746 0
1 9.93469 4.56909 0
1 0.0136332 5.46932 0
1 0.571902 6.39082 0
1 1.05446 5.47018 0
1 1.63675 6.35832 0
1 2.07649 5.42765 0
1 2.68927 6.27918 0
1 3.19875 5.43588 0
1 3.69508 6.33998 0
1 4.22137 5.45619 0
1 4.72286 6.36637 0
1 5.24324 5.50585 0
1 5.81014 6.3329 0
1 6.28305 5.42953 0
1 6.82625 6.34297 0
1 7.32331 5.43915 0
1 7.83063 6.40044 0
1 8.38624 5.49023 0
1 8.95861 6.34515 0
1 9.44831 5.44045 0
1 9.98908 6.33732 0
1 0.0169778 7.28624 0
1 0.549442 8.16192 0
1 1.07183 7.24969 0
1 1.59497 8.18184 0
1 2.11923 7.21713 0
1 2.64835 8.18713 0
1 3.11209 7.26255 0
1 3.69087 8.18589 0
1 4.20011 7.26516 0
1 4.72291 8.17773 0
1 5.22744 7.25614 0
1 5.79427 8.15271 0
1 6.2882 7.22928 0
1 6.8018 8.16414 0
1 7.28829 7.25087 0
1 7.82467 8.12929 0
1 8.36357 7.22749 0
1 8.92231 8.15447 0
1 9.43814 7.29948 0
1 9.99714 8.14552 0
100
Atoms. Timestep: 800
1 10.4533 9.07649 0
1 0.502789 0.904659 0
1 1.02573 0.0236081 0
1 1.58002 0.887587 0
1 2.11412 9.07861 0
1 2.60895 0.933542 0
1 3.1511 9.07355 0
1 3.72125 0.877723 0
1 4.21519 9.07516 0
1 4.72362 0.889178 0
1 5.2654 9.07361 0
1 5.79871 0.915517 0
1 6.32209 9.07269 0
1 6.80488 0.89167 0
1 7.37782 0.00132351 0
1 7.87197 0.914288 0
1 8.3944 9.05672 0
1 8.92195 0.901719 0
1 9.42088 0.00183148 0
1 9.95687 0.868022 0
1 0.0266281 1.82512 0
1 0.555409 2.72311 0
1 1.08346 1.81937 0
1 1.56602 2.68183 0
1 2.12636 1.83344 0
1 2.62583 2.73072 0
1 3.19754 1.81358 0
1 3.67429 2.70403 0
1 4.2424 1.80942 0
1 4.69608 2.75556 0
1 5.27111 1.85584 0
1 5.74624 2.72458 0
1 6.3067 1.84622 0
1 6.79281 2.71445 0
1 7.34801 1.8144 0
1 7.88397 2.73176 0
1 8.39751 1.82324 0
1 8.95261 2.69231 0
1 9.47492 1.80317 0
1 9.96175 2.7137 0
1 10.4814 3.64463 0
1 0.524686 4.54543 0
1 1.03677 3.63529 0
1 1.58804 4.59013 0
1 2.06216 3.5989 0
1 2.65178 4.53227 0
1 3.1643 3.63481 0
1 3.67574 4.56331 0
1 4.22052 3.66598 0
1 4.71122 4.58162 0
1 5.24918 3.67382 0
1 5.7762 4.52393 0
1 6.26597 3.6386 0
1 6.79552 4.51499 0
1 7.30993 3.60002 0
1 7.83577 4.50563 0
1 8.42197 3.64187 0
1 8.91789 4.55534 0
1 9.42884 3.63441 0
1 9.94065 4.55252 0
1 10.4738 5.43942 0
1 0.532345 6.34736 0
1 1.04566 5.44158 0
1 1.5558 6.40394 0
1 2.08355 5.46682 0
1 2.64743 6.3959 0
1 3.17032 5.42865 0
1 3.65372 6.34466 0
1 4.23896 5.48693 0
1 4.68022 6.37365 0
1 5.25593 5.48216 0
1 5.71502 6.36084 0
1 6.29349 5.44969 0
1 6.78618 6.33328 0
1 7.35175 5.45461 0
1 7.83555 6.34701 0
1 8.37015 5.45545 0
1 8.86879 6.36136 0
1 9.43013 5.43879 0
1 9.96636 6.35256 0
1 10.4767 7.24847 0
1 0.521278 8.18687 0
1 1.05278 7.28964 0
1 1.54712 8.17341 0
1 2.13038 7.2511 0
1 2.58758 8.17201 0
1 3.13519 7.26947 0
1 3.63642 8.15481 0
1 4.14317 7.27123 0
1 4.70575 8.13789 0
1 5.2586 7.25446 0
1 5.79618 8.17788 0
1 6.29871 7.26711 0
1 6.8018 8.15988 0
1 7.34033 7.23829 0
1 7.82056 8.16783 0
1 8.38759 7.24855 0
1 8.87135 8.17172 0
1 9.42704 7.25292 0
1 9.95352 8.22716 0
100
Atoms. Timestep: 900
1 10.4632 0.0175201 0
1 0.529672 0.910687 0
1 1.00713 9.07248 0
1 1.56926 0.921859 0
1 2.08105 0.00850697 0
1 2.57969 0.903384 0
1 3.13477 9.06968 0
1 3.6355 0.901833 0
1 4.14858 9.07781 0
1 4.75142 0.867207 0
1 5.23084 9.0372 0
1 5.76284 0.889213 0
1 6.30299 0.00271739 0
1 6.82957 0.939441 0
1 7.33166 0.00391605 0
1 7.8717 0.926557 0
1 8.36469 0.0151885 0
1 8.92181 0.847278 0
1 9.4339 0.00207832 0
1 9.97452 0.896024 0
1 0.000171143 1.76002 0
1 0.49571 2.71654 0
1 1.0485 1.84973 0
1 1.5913 2.73135 0
1 2.10203 1.80266 0
1 2.60677 2.70087 0
1 3.11873 1.79828 0
1 3.63895 2.7047 0
1 4.14971 1.79125 0
1 4.71687 2.66856 0
1 5.2276 1.7493 0
1 5.74 2.72645 0
1 6.2683 1.83924 0
1 6.84894 2.73227 0
1 7.35262 1.82168 0
1 7.89303 2.6959 0
1 8.4126 1.80328 0
1 8.90149 2.73705 0
1 9.47037 1.81137 0
1 9.96206 2.73931 0
1 0.01841 3.61486 0
1 0.481511 4.55757 0
1 1.01948 3.60045 0
1 1.56778 4.48342 0
1 2.07584 3.62961 0
1 2.62795 4.52925 0
1 3.11981 3.6106 0
1 3.70149 4.5232 0
1 4.15989 3.59336 0
1 4.72047 4.55474 0
1 5.2062 3.62693 0
1 5.78448 4.52196 0
1 6.30773 3.65114 0
1 6.84545 4.54603 0
1 7.35475 3.62636 0
1 7.8578 4.55424 0
1 8.36615 3.6457 0
1 8.92855 4.51681 0
1 9.43074 3.66281 0
1 9.96795 4.56808 0
1 10.4667 5.49917 0
1 0.533916 6.37454 0
1 1.06408 5.44117 0
1 1.58 6.35383 0
1 2.16829 5.45106 0
1 2.59716 6.37651 0
1 3.14449 5.50435 0
1 3.69349 6.36216 0
1 4.21375 5.39505 0
1 4.73838 6.33889 0
1 5.262 5.42845 0
1 5.79814 6.39407 0
1 6.29861 5.48862 0
1 6.85992 6.38777 0
1 7.32355 5.44337 0
1 7.88241 6.35388 0
1 8.40647 5.44259 0
1 8.9247 6.38487 0
1 9.45062 5.49755 0
1 9.97366 6.38477 0
1 0.0217652 7.26558 0
1 0.5313 8.17573 0
1 1.08817 7.28391 0
1 1.55205 8.21108 0
1 2.09018 7.31871 0
1 2.59128 8.19144 0
1 3.12385 7.25731 0
1 3.64008 8.11459 0
1 4.12328 7.26548 0
1 4.71811 8.16298 0
1 5.21774 7.25896 0
1 5.76047 8.14361 0
1 6.30921 7.30288 0
1 6.85297 8.1701 0
1 7.37362 7.28155 0
1 7.89525 8.19319 0
1 8.41044 7.31044 0
1 8.95822 8.20348 0
1 9.4764 7.2873 0
1 9.9654 8.19834 0
100
Atoms. Timestep: 1000
1 0.0281574 9.07661 0
1 0.532266 0.896009 0
1 1.04044 0.0292722 0
1 1.56837 0.901657 0
1 2.13219 0.0261705 0
1 2.65997 0.915663 0
1 3.16237 9.08115 0
1 3.68094 0.905976 0
1 4.2042 0.0231838 0
1 4.71526 0.911942 0
1 5.22831 0.0253644 0
1 5.73889 0.935991 0
1 6.27218 0.0369136 0
1 6.79828 0.906323 0
1 7.30888 9.07771 0
1 7.88677 0.917026 0
1 8.43403 0.0143728 0
1 8.92002 0.887651 0
1 9.49589 9.04812 0
1 9.94449 0.907033 0
1 0.00955123 1.79355 0
1 0.530617 2.69526 0
1 1.03064 1.77804 0
1 1.58443 2.70908 0
1 2.08587 1.83363 0
1 2.65318 2.70166 0
1 3.18927 1.78276 0
1 3.61671 2.7212 0
1 4.19369 1.80847 0
1 4.67321 2.70024 0
1 5.22154 1.85185 0
1 5.80863 2.71666 0
1 6.28933 1.81289 0
1 6.81512 2.73142 0
1 7.34916 1.81309 0
1 7.83772 2.73798 0
1 8.39607 1.8047 0
1 8.95675 2.66722 0
1 9.45147 1.74686 0
1 9.97428 2.71768 0
1 10.4682 3.63544 0
1 0.506603 4.50153 0
1 1.05811 3.58741 0
1 1.54094 4.48943 0
1 2.11991 3.61842 0
1 2.59829 4.53966 0
1 3.15004 3.65918 0
1 3.67134 4.56934 0
1 4.19267 3.60165 0
1 4.73745 4.52633 0
1 5.24138 3.61898 0
1 5.78622 4.53821 0
1 6.32716 3.6176 0
1 6.78922 4.55018 0
1 7.35802 3.6297 0
1 7.84865 4.51187 0
1 8.44536 3.61085 0
1 8.88251 4.56467 0
1 9.41564 3.63367 0
1 9.96269 4.54897 0
1 0.0143987 5.45222 0
1 0.541015 6.33895 0
1 1.02195 5.40244 0
1 1.54468 6.37875 0
1 2.10793 5.46057 0
1 2.62768 6.38059 0
1 3.14308 5.45131 0
1 3.64776 6.33467 0
1 4.19314 5.46247 0
1 4.74863 6.3519 0
1 5.25425 5.47722 0
1 5.77116 6.34867 0
1 6.29505 5.46975 0
1 6.77549 6.41116 0
1 7.32761 5.42215 0
1 7.84751 6.34541 0
1 8.36727 5.45045 0
1 8.93012 6.34961 0
1 9.41269 5.43588 0
1 10.009 6.37453 0
1 10.4711 7.31735 0
1 0.520215 8.17848 0
1 1.04743 7.26888 0
1 1.56059 8.19594 0
1 2.06848 7.27699 0
1 2.57789 8.21909 0
1 3.08358 7.31139 0
1 3.66773 8.23185 0
1 4.22188 7.3069 0
1 4.71469 8.21135 0
1 5.25273 7.26796 0
1 5.74382 8.19716 0
1 6.29347 7.28153 0
1 6.81591 8.19269 0
1 7.34674 7.31465 0
1 7.86825 8.15302 0
1 8.38578 7.2475 0
1 8.92608 8.15797 0
1 9.44809 7.25489 0
1 9.97865 8.12117 0
100
Atoms. Timestep: 1100
1 0.0107056 0.0583654 0
1 0.525242 0.945171 0
1 1.04936 0.032263 0
1 1.60655 0.908563 0
1 2.09308 0.00371785 0
1 2.65243 0.845792 0
1 3.1973 0.00890966 0
1 3.67799 0.870578 0
1 4.20051 0.0160467 0
1 4.6831 0.886059 0
1 5.27652 0.00262312 0
1 5.7528 0.912675 0
1 6.28109 9.07823 0
1 6.77407 0.926033 0
1 7.32903 9.07408 0
1 7.82456 0.890052 0
1 8.3544 9.05154 0
1 8.89707 0.903259 0
1 9.41568 0.014165 0
1 9.93413 0.938938 0
1 10.4609 1.81112 0
1 0.513224 2.6845 0
1 1.04336 1.81955 0
1 1.60426 2.67919 0
1 2.13042 1.77982 0
1 2.63328 2.7069 0
1 3.15646 1.79125 0
1 3.66686 2.73136 0
1 4.18637 1.7966 0
1 4.70248 2.7153 0
1 5.2084 1.79273 0
1 5.76379 2.67616 0
1 6.2772 1.82923 0
1 6.84689 2.7036 0
1 7.30646 1.77966 0
1 7.85837 2.70382 0
1 8.33881 1.82333 0
1 8.89027 2.74315 0
1 9.42281 1.86621 0
1 9.97848 2.71667 0
1 10.4624 3.64075 0
1 0.538059 4.53401 0
1 1.11074 3.54409 0
1 1.58594 4.57302 0
1 2.13754 3.62845 0
1 2.65322 4.54222 0
1 3.17295 3.64814 0
1 3.68769 4.52983 0
1 4.23543 3.63335 0
1 4.72559 4.51195 0
1 5.25175 3.57766 0
1 5.74432 4.49699 0
1 6.31161 3.59446 0
1 6.8267 4.52799 0
1 7.35185 3.59006 0
1 7.81055 4.5329 0
1 8.37265 3.65752 0
1 8.93306 4.58407 0
1 9.43971 3.63 0
1 9.97186 4.57464 0
1 10.4686 5.47163 0
1 0.524471 6.33321 0
1 1.07309 5.44014 0
1 1.56388 6.40219 0
1 2.09157 5.44941 0
1 2.60283 6.36585 0
1 3.16027 5.44286 0
1 3.69562 6.38883 0
1 4.18157 5.42977 0
1 4.72584 6.40543 0
1 5.24386 5.46354 0
1 5.80411 6.35078 0
1 6.29487 5.38974 0
1 6.78733 6.32424 0
1 7.34814 5.47135 0
1 7.8522 6.38984 0
1 8.38134 5.47797 0
1 8.92993 6.39101 0
1 9.37001 5.48143 0
1 9.97425 6.33646 0
1 10.4572 7.289 0
1 0.52718 8.20328 0
1 1.05354 7.28586 0
1 1.5855 8.19328 0
1 2.11809 7.33005 0
1 2.61351 8.22396 0
1 3.12748 7.27824 0
1 3.6726 8.18946 0
1 4.18662 7.2828 0
1 4.74142 8.16794 0
1 5.27124 7.26055 0
1 5.7873 8.16023 0
1 6.32197 7.2773 0
1 6.82669 8.1784 0
1 7.3341 7.24489 0
1 7.84636 8.16327 0
1 8.39624 7.2769 0
1 8.8605 8.18074 0
1 9.45691 7.25126 0
1 9.95996 8.21271 0
100
Atoms. Timestep: 1200
1 10.4793 9.07529 0
1 0.520927 0.921843 0
1 1.02065 9.06198 0
1 1.60509 0.866987 0
1 2.13454 9.07855 0
1 2.62612 0.967401 0
1 3.16421 9.06087 0
1 3.67935 0.911963 0
1 4.20961 0.012396 0
1 4.71659 0.968362 0
1 5.21728 0.0450363 0
1 5.75565 0.940181 0
1 6.29562 0.038951 0
1 6.82628 0.935967 0
1 7.32136 9.04745 0
1 7.85031 0.865457 0
1 8.34434 9.05187 0
1 8.90875 0.879131 0
1 9.45409 0.0224528 0
1 9.96469 0.909694 0
1 10.4843 1.82862 0
1 0.537987 2.71158 0
1 1.06726 1.75097 0
1 1.55684 2.70844 0
1 2.09163 1.81108 0
1 2.62944 2.74434 0
1 3.16019 1.84157 0
1 3.67334 2.72286 0
1 4.20098 1.85518 0
1 4.72608 2.72066 0
1 5.25019 1.81293 0
1 5.76225 2.70784 0
1 6.29117 1.83551 0
1 6.79348 2.72076 0
1 7.30844 1.83029 0
1 7.89759 2.69422 0
1 8.38241 1.8038 0
1 8.92433 2.7231 0
1 9.4611 1.81299 0
1 9.96145 2.74267 0
1 0.039398 3.56544 0
1 0.470258 4.5643 0
1 1.04345 3.62769 0
1 1.54362 4.52515 0
1 2.07598 3.63317 0
1 2.62721 4.51819 0
1 3.15959 3.61521 0
1 3.66753 4.54364 0
1 4.15624 3.64604 0
1 4.73391 4.55491 0
1 5.24809 3.63142 0
1 5.79817 4.51803 0
1 6.32197 3.58702 0
1 6.79999 4.49816 0
1 7.35587 3.59924 0
1 7.84749 4.55988 0
1 8.40673 3.68813 0
1 8.91062 4.56573 0
1 9.41435 3.62423 0
1 9.9717 4.54812 0
1 10.4226 5.48551 0
1 0.537188 6.32569 0
1 1.0393 5.45273 0
1 1.54152 6.35689 0
1 2.13987 5.42691 0
1 2.59983 6.3335 0
1 3.13631 5.42448 0
1 3.6949 6.3833 0
1 4.19271 5.46365 0
1 4.74048 6.36685 0
1 5.23116 5.39964 0
1 5.73849 6.397 0
1 6.27092 5.44166 0
1 6.80223 6.36882 0
1 7.33128 5.43982 0
1 7.83635 6.35891 0
1 8.37119 5.4735 0
1 8.8764 6.36833 0
1 9.44673 5.4348 0
1 9.91187 6.34134 0
1 0.0185169 7.19339 0
1 0.524153 8.1384 0
1 1.02027 7.25973 0
1 1.58124 8.16226 0
1 2.13802 7.26984 0
1 2.65349 8.16634 0
1 3.15471 7.30075 0
1 3.69861 8.17881 0
1 4.19965 7.31393 0
1 4.75154 8.2028 0
1 5.25454 7.29977 0
1 5.78661 8.20223 0
1 6.28599 7.24688 0
1 6.81619 8.13817 0
1 7.31812 7.27594 0
1 7.90142 8.17208 0
1 8.40319 7.28942 0
1 8.94395 8.19919 0
1 9.4341 7.28408 0
1 9.98681 8.17819 0
100
Atoms. Timestep: 1300
1 10.4636 0.0126159 0
1 0.504123 0.946941 0
1 1.0577 9.04595 0
1 1.53417 0.892893 0
1 2.06988 9.07363 0
1 2.62863 0.922624 0
1 3.11252 0.00430855 0
1 3.64403 0.914684 0
1 4.15503 0.00309969 0
1 4.70532 0.891248 0
1 5.26057 9.0678 0
1 5.741 0.931692 0
1 6.31723 0.0164042 0
1 6.78923 0.89736 0
1 7.34859 9.03207 0
1 7.83657 0.888367 0
1 8.38792 9.0637 0
1 8.86257 0.910403 0
1 9.43447 0.0578419 0
1 9.92795 0.924506 0
1 0.0365788 1.8063 0
1 0.527318 2.76444 0
1 1.06359 1.85685 0
1 1.61203 2.71966 0
1 2.1204 1.85222 0
1 2.6152 2.73564 0
1 3.1406 1.81109 0
1 3.6337 2.71972 0
1 4.18468 1.82343 0
1 4.72297 2.72979 0
1 5.22844 1.80468 0
1 5.73512 2.71973 0
1 6.27922 1.82121 0
1 6.8137 2.7513 0
1 7.30257 1.80381 0
1 7.82339 2.75426 0
1 8.38544 1.80882 0
1 8.9339 2.74919 0
1 9.42925 1.80166 0
1 9.99753 2.73495 0
1 10.4588 3.65762 0
1 0.551066 4.55876 0
1 1.04951 3.60753 0
1 1.59899 4.54342 0
1 2.11219 3.63526 0
1 2.61303 4.53148 0
1 3.11174 3.62196 0
1 3.66797 4.52151 0
1 4.18505 3.61434 0
1 4.70403 4.55515 0
1 5.2372 3.6153 0
1 5.80382 4.54094 0
1 6.30271 3.64787 0
1 6.84199 4.55278 0
1 7.34427 3.63989 0
1 7.88705 4.5535 0
1 8.39788 3.64622 0
1 8.94124 4.50965 0
1 9.44363 3.6525 0
1 9.99659 4.52097 0
1 0.000486355 5.39301 0
1 0.509605 6.37545 0
1 1.06507 5.46132 0
1 1.55621 6.35256 0
1 2.09932 5.46642 0
1 2.59202 6.36948 0
1 3.14257 5.43171 0
1 3.64235 6.3282 0
1 4.16468 5.45812 0
1 4.71119 6.35711 0
1 5.22606 5.45849 0
1 5.74174 6.33442 0
1 6.29897 5.45953 0
1 6.78647 6.35148 0
1 7.34076 5.45582 0
1 7.85664 6.3277 0
1 8.405 5.42746 0
1 8.95344 6.36005 0
1 9.45817 5.44584 0
1 10.0099 6.35465 0
1 0.0472471 7.29729 0
1 0.530194 8.17302 0
1 1.06457 7.24691 0
1 1.55829 8.14546 0
1 2.08859 7.22035 0
1 2.60185 8.1676 0
1 3.17648 7.24365 0
1 3.65529 8.18512 0
1 4.20699 7.26052 0
1 4.69621 8.2057 0
1 5.23533 7.27211 0
1 5.79527 8.18814 0
1 6.30587 7.25193 0
1 6.83709 8.11847 0
1 7.38078 7.24745 0
1 7.9076 8.17137 0
1 8.43481 7.29094 0
1 8.96169 8.18838 0
1 9.45957 7.25891 0
1 9.97327 8.19298 0
100
Atoms. Timestep: 1400
1 10.4843 0.0008424 0
1 0.557025 0.898304 0
1 1.05282 9.07395 0
1 1.58527 0.936854 0
1 2.09743 9.06238 0
1 2.64106 0.905075 0
1 3.14744 9.06355 0
1 3.65996 0.903683 0
1 4.18646 0.0325487 0
1 4.71782 0.923741 0
1 5.2426 0.00183477 0
1 5.77845 0.900946 0
1 6.32204 9.0618 0
1 6.80236 0.905497 0
1 7.36674 0.0183839 0
1 7.86958 0.925968 0
1 8.38974 0.0201293 0
1 8.97343 0.936105 0
1 9.42703 9.07749 0
1 9.98741 0.914105 0
1 0.0189222 1.85229 0
1 0.53963 2.72009 0
1 1.06242 1.81766 0
1 1.55667 2.76345 0
1 2.08474 1.84487 0
1 2.60532 2.73814 0
1 3.1186 1.82849 0
1 3.63862 2.71973 0
1 4.20304 1.79728 0
1 4.68098 2.71991 0
1 5.24764 1.83453 0
1 5.82127 2.7702 0
1 6.2658 1.79619 0
1 6.83446 2.75159 0
1 7.30573 1.79475 0
1 7.84918 2.74732 0
1 8.38893 1.76972 0
1 8.93914 2.71808 0
1 9.45162 1.86937 0
1 9.98456 2.7438 0
1 0.00222185 3.63837 0
1 0.492285 4.56078 0
1 1.06099 3.69974 0
1 1.55143 4.5576 0
1 2.08769 3.64174 0
1 2.62206 4.54123 0
1 3.10193 3.64101 0
1 3.64668 4.54206 0
1 4.17014 3.63899 0
1 4.71227 4.50271 0
1 5.25239 3.61355 0
1 5.76088 4.53009 0
1 6.34501 3.67691 0
1 6.80108 4.62717 0
1 7.36166 3.64932 0
1 7.87215 4.51128 0
1 8.40354 3.63232 0
1 8.90652 4.54283 0
1 9.45586 3.62403 0
1 9.96363 4.49847 0
1 10.4743 5.46338 0
1 0.51999 6.36624 0
1 1.04497 5.45342 0
1 1.57816 6.35232 0
1 2.08981 5.44593 0
1 2.66678 6.35178 0
1 3.14839 5.46225 0
1 3.6866 6.30103 0
1 4.18862 5.38557 0
1 4.67543 6.34893 0
1 5.2342 5.45573 0
1 5.74582 6.35866 0
1 6.23317 5.44647 0
1 6.7636 6.40372 0
1 7.35143 5.46661 0
1 7.82869 6.33564 0
1 8.38945 5.42223 0