100
Atoms. Timestep: 0
1 11.4428 -5.56904 11.0272
1 10.77 -5.60318 10.2801
1 11.3949 -6.24517 9.87938
1 10.5617 -6.56119 9.69909
1 10.652 -7.01609 8.84847
1 9.94764 -6.36978 8.88163
1 9.19395 -6.84006 8.41075
1 9.12577 -5.78109 8.4093
1 9.81594 -6.19066 7.83768
1 10.5025 -5.66373 8.23167
1 11.1023 -5.50162 8.94124
1 10.7556 -4.844 9.47521
1 10.037 -5.00189 8.87943
1 9.2134 -4.56114 8.66972
1 8.76913 -4.70138 9.51585
1 8.70131 -3.78189 9.53469
1 7.94482 -3.37236 9.32601
1 7.06029 -3.14327 8.98686
1 7.06825 -2.88853 8.03647
1 7.56013 -2.85184 7.19763
1 8.30288 -3.1275 6.63985
1 7.78219 -2.46031 6.21796
1 8.23845 -2.06691 6.96524
1 7.72553 -1.84898 7.77661
1 7.60156 -2.24968 8.70194
1 8.20483 -2.88314 8.28254
1 8.84741 -3.49177 7.76775
1 8.38267 -4.06072 7.22877
1 8.09863 -4.52385 8.02738
1 7.57118 -3.76553 7.76972
1 6.85422 -4.07267 8.34126
1 6.81194 -4.80508 7.74479
1 7.31531 -5.39422 8.32189
1 7.10252 -6.16627 7.81682
1 6.42166 -6.85222 7.77727
1 6.68416 -7.18698 8.60948
1 6.7695 -7.96795 9.14473
1 7.472 -7.93767 8.44244
1 8.04471 -7.92013 7.70634
1 7.34274 -8.44262 7.3268
1 6.74683 -7.67781 7.18469
1 6.43128 -8.06699 6.3831
1 6.98069 -7.52678 5.80115
1 7.68479 -8.18637 5.86694
1 7.88993 -7.77444 6.70077
1 7.46907 -6.90713 6.97077
1 6.881 -6.60472 6.20337
1 6.11311 -6.47673 6.78356
1 5.36724 -6.51206 7.35108
1 5.08208 -6.2467 8.2419
1 5.15133 -6.26538 9.15813
1 5.62544 -5.45904 9.36353
1 6.52601 -5.14877 9.17259
1 6.75071 -6.09482 9.02188
1 7.49263 -5.91571 9.57596
1 8.15811 -5.604 9.00934
1 8.53868 -6.44597 9.24226
1 9.33858 -5.97619 9.50176
1 9.83081 -5.94523 10.3053
1 9.67493 -5.03464 9.93609
1 9.57724 -4.27111 10.4275
1 9.85567 -5.07828 10.8361
1 10.7921 -4.68957 10.9395
1 10.7271 -4.13683 10.1368
1 10.0675 -3.44665 10.1184
1 9.75601 -3.815 9.20873
1 9.12388 -3.25812 8.75893
1 9.776 -3.57334 8.08692
1 10.555 -3.5418 7.50384
1 11.3297 -3.72068 8.02186
1 12.2428 -3.52395 8.27775
1 12.7017 -2.70203 8.25596
1 12.4312 -1.902 7.77978
1 12.7727 -1.09492 8.20093
1 13.1102 -1.29898 7.38328
1 13.8729 -1.75205 7.69887
1 13.773 -0.737898 7.9661
1 13.1586 0.0603943 8.06724
1 13.2495 0.0373323 9.02809
1 12.9459 0.890064 8.59758
1 12.9667 1.61463 7.93646
1 12.2407 1.23857 7.45588
1 12.8632 1.28038 6.64874
1 13.7348 1.09339 6.15251
1 13.8707 1.98947 5.84421
1 13.0052 2.2137 5.62619
1 12.3616 2.1959 6.29372
1 11.5784 2.78393 6.03825
1 12.1706 3.28917 6.55331
1 11.3319 3.17128 6.93426
1 10.9574 3.98306 6.5766
1 11.5022 4.30406 7.34098
1 10.9495 4.99586 7.02293
1 10.7159 5.34453 7.89292
1 9.83296 5.09681 7.51219
1 9.87703 6.00611 7.74935
1 9.87361 6.48773 8.61468
1 9.6915 5.95213 9.36055
1 9.45394 6.83085 9.6906
1 10.3685 6.99488 9.40339
100
Atoms. Timestep: 250
1 11.7168 -6.49305 8.84695
1 12.5439 -7.38034 9.89052
1 11.3728 -7.66756 9.08215
1 10.319 -6.23502 10.0321
1 9.63325 -6.17297 8.84452
1 9.00775 -7.03118 7.48809
1 9.07557 -7.50788 6.18334
1 9.25868 -6.06648 7.67399
1 10.5038 -6.18308 7.63244
1 9.95192 -5.99608 9.10085
1 8.87504 -4.55184 9.05265
1 8.46796 -3.60128 7.21474
1 7.48959 -4.49537 8.65402
1 8.03878 -3.38762 10.1715
1 8.03419 -3.495 8.93172
1 8.93356 -4.01658 8.30527
1 7.83616 -3.49551 7.91854
1 8.50446 -3.97278 6.65698
1 10.0583 -4.29906 7.09727
1 10.1115 -2.83067 7.52019
1 8.67868 -2.11937 7.74982
1 8.57261 -1.57558 8.29559
1 8.56529 -3.06612 7.49753
1 7.80463 -2.7251 5.90471
1 6.38419 -2.48512 5.74723
1 7.97569 -2.02567 6.57444
1 8.16839 -3.51667 7.01856
1 7.65601 -3.95095 8.73438
1 9.01992 -3.69929 7.39325
1 8.76176 -3.00034 8.23955
1 7.5059 -3.19524 8.41172
1 7.55696 -4.77196 8.29149
1 6.47759 -5.6477 8.92448
1 6.39329 -4.01122 8.68117
1 7.2893 -5.38455 8.99081
1 7.77836 -6.89581 8.46341
1 6.63235 -7.38536 9.55346
1 5.54645 -8.07143 8.92257
1 4.70111 -9.19085 8.43881
1 6.30448 -9.07734 7.62007
1 6.74504 -8.11368 6.381
1 7.74314 -8.12091 5.87344
1 6.89766 -7.33013 6.65651
1 5.71929 -7.34131 5.42778
1 5.65399 -6.17973 6.11021
1 5.75206 -7.47959 6.6287
1 6.87981 -6.56838 7.54046
1 6.08332 -5.68814 8.38267
1 6.24803 -6.45246 7.58501
1 5.79635 -6.98907 8.90237
1 7.33414 -7.05647 9.81568
1 6.95045 -6.75663 8.40804
1 6.23977 -6.71157 9.48243
1 6.80106 -5.96869 8.1148
1 8.26868 -6.13475 9.79553
1 9.31111 -4.79746 10.3098
1 8.65531 -5.48298 9.21204
1 8.0436 -6.17623 10.3105
1 9.70317 -6.31758 9.8569
1 9.49128 -4.326 10.1619
1 10.5463 -4.22675 9.92163
1 10.968 -3.40425 10.4409
1 9.92847 -4.50979 10.8578
1 8.85921 -4.84917 9.92362
1 10.2367 -5.05188 10.4762
1 10.3669 -5.7398 11.4048
1 10.9476 -5.10748 10.3134
1 12.0721 -3.81134 10.6705
1 11.2806 -4.45679 9.35664
1 11.6622 -2.91208 8.69181
1 10.4145 -2.90773 7.46126
1 11.4334 -2.64233 8.7454
1 12.0732 -2.19097 7.52624
1 13.1997 -2.45213 7.85759
1 12.6398 -1.03564 8.17032
1 12.7434 0.36214 7.6215
1 13.3787 1.37614 8.47602
1 14.4128 1.00734 7.54634
1 14.0784 0.299539 5.56742
1 13.5208 0.658568 7.1164
1 12.7103 0.447369 5.92213
1 13.3004 0.38679 7.53424
1 13.9833 1.50554 6.50351
1 12.6408 1.30999 7.28776
1 12.1993 1.57877 6.48791
1 12.3551 0.899316 5.02695
1 12.4844 0.547497 6.89636
1 11.2067 1.66286 5.94112
1 12.3595 2.58458 6.68048
1 13.0799 4.14463 7.01116
1 11.4956 3.66877 6.90886
1 10.5731 4.74255 7.03898
1 11.1031 5.74657 6.75812
1 10.7965 5.56462 8.40956
1 10.3865 5.87327 9.82029
1 10.1341 6.73498 10.1987
1 10.5141 6.50291 8.45236
1 9.614 7.67831 9.63712
1 10.0307 5.99136 8.92617
1 10.5382 6.41991 10.0998
100
Atoms. Timestep: 500
1 9.00337 -5.91492 8.49493
1 10.1069 -6.84645 7.80622
1 10.7905 -7.432 9.33184
1 10.0328 -7.49403 8.42869
1 10.7954 -6.40529 7.77366
1 10.8097 -5.26912 7.42425
1 9.52339 -3.68596 7.82701
1 9.98015 -4.91204 8.88309
1 9.18309 -5.95635 8.44886
1 7.86718 -5.50208 7.71888
1 7.31475 -5.14811 6.87032
1 6.38135 -4.26649 8.33697
1 7.4699 -4.51831 7.09205
1 8.23619 -4.01497 7.60369
1 8.56693 -2.50603 7.34476
1 8.42464 -3.56167 8.34107
1 9.6021 -2.11105 8.36089
1 10.657 -2.93622 7.27823
1 9.8145 -3.40521 5.89801
1 8.98711 -2.9389 6.49095
1 8.67644 -2.19967 5.23908
1 8.55975 -3.24727 6.26825
1 9.60554 -3.92701 6.89292
1 9.42273 -3.45052 8.47604
1 9.54656 -4.87133 7.75583
1 8.6069 -3.63053 7.01312
1 9.08109 -2.56504 7.7126
1 8.75559 -2.98836 8.74438
1 9.43528 -4.34165 8.18384
1 10.358 -3.60304 9.08357
1 8.72412 -4.38006 8.72175
1 7.95945 -4.72981 7.33082
1 7.16986 -4.39216 8.36222
1 8.10903 -4.93659 8.15996
1 6.70176 -5.73001 7.55685
1 6.3058 -6.87836 7.52723
1 5.34386 -7.34217 6.90915
1 6.66862 -7.65267 7.69326
1 5.62211 -6.7438 6.4546
1 5.97348 -6.94951 7.64734
1 5.88273 -8.06549 8.49817
1 5.26539 -6.68679 7.56169
1 4.49045 -7.29608 6.73244
1 3.95616 -5.97905 7.13878
1 4.77883 -5.45934 8.36774
1 6.43845 -5.10304 8.31089
1 6.34742 -6.90584 8.82323
1 7.6807 -6.54458 8.1002
1 8.50766 -5.58165 7.93069
1 9.88372 -5.31292 7.98302
1 8.93898 -6.13107 7.58868
1 9.24648 -7.22102 8.21217
1 9.02426 -8.93196 8.59807
1 8.92229 -9.68507 9.91529
1 9.02974 -8.27153 9.54067
1 9.11557 -7.37499 8.41389
1 8.02628 -6.05424 8.929
1 7.92404 -5.33986 10.1758
1 7.4037 -6.08378 8.82585
1 8.54474 -5.3594 9.13529
1 9.37483 -5.04308 10.6676
1 9.98535 -3.9557 10.6639
1 10.2483 -3.65968 8.95249
1 11.5759 -4.4906 9.38936
1 11.9655 -3.12338 9.21604
1 12.7261 -4.44764 9.20517
1 12.0792 -4.94697 10.0804
1 11.5522 -4.51649 11.4264
1 12.3462 -3.68998 11.0468
1 10.7704 -3.47333 10.9314
1 10.9881 -2.31488 10.231
1 11.2141 -0.593028 9.66547
1 11.8005 -0.872033 8.39294
1 10.5329 -0.779266 9.02648
1 9.59952 0.380138 8.84147
1 9.14406 -1.3063 8.46433
1 10.0459 -1.11201 9.01623
1 11.2896 -1.2732 8.16322
1 12.3555 -1.73613 6.70109
1 13.479 -1.17851 5.6975
1 12.6204 -0.365554 6.51197
1 11.5715 -1.05348 6.06271
1 12.88 -0.201634 6.1741
1 14.0037 0.276015 6.5411
1 13.9191 1.942 6.89948
1 12.4887 2.60718 6.644
1 11.8751 3.20267 8.03116
1 11.1882 2.31247 8.94233
1 10.9012 3.42061 7.56046
1 11.0351 4.54112 7.26582
1 12.4099 4.27812 8.041
1 11.4637 4.95845 7.40981
1 11.3972 3.48959 7.65435
1 11.507 4.55215 8.27972
1 10.0811 4.80942 9.19465
1 10.2452 5.87125 10.2244
1 9.92438 4.91605 8.96207
1 10.4546 6.93049 8.56052
1 11.0718 7.73548 9.99624
1 10.4004 6.41155 9.39014
100
Atoms. Timestep: 750
1 8.23764 -8.12315 10.0637
1 8.37718 -6.63206 9.34884
1 9.59099 -6.35144 8.26346
1 8.39935 -4.93969 7.8458
1 9.71837 -4.57316 8.04715
1 8.58798 -4.19203 7.1445
1 8.13317 -3.04908 6.99231
1 6.6631 -3.6043 7.04729
1 7.84734 -4.07939 7.61757
1 8.69686 -3.36206 6.98936
1 10.2612 -3.95716 6.73915
1 10.009 -5.25596 6.28437
1 9.52287 -4.88555 7.49018
1 8.44214 -5.61044 6.69924
1 7.08473 -4.16451 6.34189
1 8.44183 -3.27799 6.95729
1 9.5961 -1.97638 7.49807
1 10.6845 -1.44883 8.55597
1 9.95333 -0.994469 7.44219
1 11.027 -0.816499 8.21739
1 10.3861 -2.28651 8.98826
1 10.5196 -2.85858 7.42489
1 11.1235 -1.8659 8.36545
1 10.3837 -1.86372 7.0424
1 10.7607 -2.3787 5.86976
1 10.298 -3.4043 5.34003
1 9.02602 -4.00305 6.47071
1 8.11998 -5.55663 6.80106
1 8.19551 -5.35339 5.52962
1 8.19114 -4.08939 5.20662
1 7.48858 -4.85094 6.27436
1 7.68513 -5.35941 7.84019
1 8.60992 -5.46887 6.35293
1 7.7878 -5.44967 7.12885
1 7.70464 -3.97028 7.65592
1 5.97386 -3.09533 7.22335
1 5.747 -4.04081 8.31759
1 7.17318 -4.0137 7.86275
1 7.70546 -4.82665 9.39354
1 6.42534 -4.24713 10.0197
1 7.42121 -5.46406 9.63462
1 8.74768 -4.66294 9.10561
1 7.67927 -4.69931 8.22544
1 7.49429 -6.55206 8.52338
1 8.40449 -5.64026 8.50815
1 8.49499 -6.68654 9.03384
1 8.01791 -6.60008 7.54567
1 8.77574 -6.6119 9.20488
1 9.04053 -6.50024 7.71225
1 8.41806 -7.65972 8.13597
1 7.36484 -8.53827 8.05996
1 7.77758 -7.45233 7.36109
1 9.05293 -7.15942 7.98324
1 9.25542 -7.71328 9.32443
1 8.45696 -7.24323 7.7403
1 9.52592 -7.30278 8.40614
1 10.9382 -8.03457 8.56784
1 10.5779 -7.81556 9.55637
1 9.3892 -7.13474 8.84409
1 9.80017 -5.97356 9.66263
1 8.12873 -5.81785 9.31346
1 8.36159 -4.92126 8.57069
1 9.87529 -4.97233 9.06819
1 10.006 -6.11355 8.05095
1 9.59325 -4.71249 8.71648
1 10.737 -4.09389 9.40205
1 11.5571 -2.72438 9.5591
1 12.5641 -3.028 8.84794
1 11.8352 -2.62838 10.0266
1 10.5999 -3.04633 10.739
1 10.6176 -1.32633 9.85276
1 11.1797 -1.09673 11.1311
1 10.3759 -2.17264 11.5679
1 11.2931 -2.8805 10.7798
1 10.8103 -2.02124 9.51231
1 9.84258 -2.99272 8.55407
1 9.9477 -1.84106 9.81613
1 8.81216 -0.870443 9.57195
1 9.67886 -1.15363 8.57209
1 9.50684 -1.33301 7.1961
1 10.7155 -0.555219 7.46395
1 9.73569 0.138319 7.94473
1 8.17928 0.473434 7.56563
1 9.46407 0.973715 7.19639
1 9.49774 2.36639 7.98652
1 11.0386 1.87267 7.26059
1 12.6565 2.23596 6.85769
1 11.431 2.3539 7.90649
1 12.7718 1.88994 7.74857
1 13.0878 3.20535 8.95616
1 11.8505 2.48612 9.3005
1 12.3975 3.30436 10.5734
1 11.6539 3.84174 9.36564
1 11.9105 5.2098 8.63411
1 10.7671 5.29344 8.25744
1 11.0386 4.05767 8.34244
1 9.84123 3.0002 8.20076
1 10.8894 2.345 8.26416
1 9.96703 3.62934 8.54983
1 10.6623 3.07604 7.34079
100
Atoms. Timestep: 1000
1 8.85299 -3.45025 7.09082
1 9.56191 -4.92644 6.57729
1 9.02537 -4.30253 7.65568
1 7.8969 -4.50812 9.01597
1 6.41969 -3.83092 8.80094
1 7.25029 -4.04815 7.37202
1 8.27249 -2.83538 6.76975
1 8.78998 -4.36606 6.27425
1 8.55132 -5.80473 7.20139
1 6.94794 -5.49557 7.17515
1 7.75262 -4.67113 8.02436
1 8.52275 -4.04382 7.53049
1 8.57155 -2.88703 8.88693
1 10.1337 -3.06085 8.64677
1 11.1621 -1.78283 8.57151
1 12.4484 -2.25829 8.09899
1 11.0587 -1.16375 7.23311
1 11.8431 -2.21135 6.71101
1 12.0628 -2.15431 8.27477
1 10.9206 -2.5104 8.20821
1 9.73347 -1.04986 8.18692
1 11.1688 -0.889145 7.88894
1 10.7982 -1.67787 6.88406
1 10.6603 -2.94676 5.64926
1 9.24411 -2.56711 6.17939
1 10.1616 -2.88128 4.69478
1 9.8327 -2.03912 5.82092
1 8.90825 -2.82933 4.62287
1 9.98675 -3.59631 4.24727
1 8.79158 -3.69134 5.03227
1 7.29571 -3.77159 6.1425
1 7.39447 -3.25947 5.06456
1 7.29312 -3.24674 6.64074
1 7.42291 -2.50441 7.81604
1 8.78504 -3.30998 7.37148
1 9.61951 -4.9617 7.35918
1 8.63768 -5.56299 9.079
1 9.71004 -4.61343 9.02308
1 10.0954 -2.86053 9.21141
1 8.90134 -3.38402 8.22592
1 10.2255 -3.08948 8.83154
1 9.78744 -2.32196 9.78569
1 9.8089 -3.67962 9.2235
1 8.88516 -3.8833 7.91002
1 9.20218 -5.09685 8.6119
1 8.01538 -6.15075 7.93761
1 8.35212 -7.59661 8.41461
1 9.35964 -7.27473 7.44144
1 8.47952 -6.12753 7.66366
1 8.37728 -5.2391 8.71359
1 7.79835 -6.69173 8.68239
1 9.26246 -7.22611 8.92397
1 8.35957 -6.66486 7.76247
1 7.29778 -7.04962 6.56306
1 7.22903 -6.07838 7.59992
1 7.3386 -6.01904 9.4648
1 8.15906 -5.08517 10.0153
1 8.91046 -5.97512 9.27109
1 9.54633 -6.82053 8.94813
1 10.6747 -7.91254 9.84058
1 9.30064 -7.3962 10.4375
1 9.44882 -7.85835 8.98884
1 10.6367 -8.35374 8.35948
1 9.357 -7.66467 8.08586
1 9.26555 -6.08027 7.83609
1 8.47509 -5.86334 9.05798
1 8.73894 -4.38104 8.96443
1 7.95007 -3.44907 10.0331
1 9.42689 -4.19377 9.5359
1 10.4124 -3.71935 10.7494
1 11.9534 -4.1019 9.86314
1 10.8061 -4.32949 10.9091
1 11.4496 -3.87358 9.52702
1 10.2713 -3.99102 10.1985
1 10.7893 -3.84678 8.92293
1 10.6612 -3.01829 9.94234
1 11.6567 -2.41755 10.7288
1 10.1288 -1.61136 10.1199
1 8.56404 -1.88387 9.90483
1 8.7482 -0.965579 11.118
1 9.23382 0.55296 11.4636
1 9.16943 1.04933 10.2328
1 9.97854 2.38319 9.27343
1 9.64812 1.12294 8.2988
1 9.17467 1.02848 9.79501
1 8.04424 0.111274 9.41505
1 9.31767 0.586811 9.10644
1 10.804 0.766512 8.41044
1 9.05884 0.829265 7.99305
1 10.0294 1.66302 7.20027
1 8.87125 1.06679 7.73519
1 9.98056 1.95783 6.9461
1 10.2485 2.52931 8.46059
1 9.27289 2.58975 9.21789
1 10.5705 3.56209 8.68734
1 11.0697 2.29363 7.77414
1 12.579 2.82372 7.24998
1 12.4996 2.37152 5.89503
1 11.9581 1.60555 7.11348
1 12.9865 1.77256 5.97703
100
Atoms. Timestep: 1250
1 11.5189 -3.33656 4.71232
1 10.2443 -3.40049 5.56334
1 9.51948 -4.84853 5.64463
1 8.62308 -3.81543 6.21894
1 7.88776 -2.96158 7.18033
1 7.1126 -4.1168 6.92319
1 6.37745 -3.63957 8.07651
1 5.42499 -3.18286 6.93113
1 6.78169 -3.07479 7.6941
1 7.49425 -1.67088 7.9358
1 8.6691 -1.79056 8.86614
1 7.47482 -2.59169 8.61084
1 8.63528 -2.4363 7.8027
1 9.94318 -1.67403 7.85583
1 11.1898 -0.986377 8.10218
1 9.82742 -2.08332 8.34366
1 10.879 -2.8254 8.78299
1 12.1673 -2.07575 9.37818
1 13.3691 -2.61103 8.62423
1 12.2832 -1.89841 7.63418
1 12.1785 -3.14146 7.04477
1 11.6924 -4.2921 6.30171
1 10.1843 -3.58171 6.76762
1 8.87703 -2.90635 6.49931
1 9.79702 -1.94219 6.41981
1 9.00665 -3.29859 6.16862
1 9.43759 -2.51748 7.21823
1 9.35262 -1.16227 7.83031
1 8.583 -0.711853 8.95915
1 9.56413 -0.639083 7.51725
1 10.5178 -1.8416 7.8415
1 11.6462 -2.46066 8.78633
1 11.2986 -2.50745 7.26731
1 11.2856 -3.65941 6.08812
1 11.1048 -5.09849 6.32481
1 10.3548 -4.20657 4.81867
1 10.7107 -4.66869 5.94086
1 9.4428 -4.73428 7.06548
1 8.83537 -5.41589 5.55312
1 10.1521 -4.77586 5.87022
1 8.82583 -4.62691 6.38399
1 8.71606 -5.56686 7.60537
1 9.47901 -4.53508 8.26835
1 10.9556 -4.4249 8.7623
1 9.93931 -4.51818 7.71864
1 9.96348 -3.11717 8.4305
1 10.1114 -3.70672 9.73935
1 9.19155 -3.69519 8.4572
1 10.214 -4.42513 7.96743
1 8.85777 -3.65926 8.05026
1 9.81985 -4.57056 8.16946
1 9.00421 -4.77376 9.62521
1 7.43209 -4.28478 9.01389
1 7.43423 -5.87955 9.2513
1 6.43743 -6.85374 9.90972
1 5.85088 -7.45095 8.48333
1 6.8302 -5.89502 8.10592
1 8.52983 -5.78303 8.4571
1 8.65582 -6.99166 9.23268
1 9.41595 -5.7535 8.93595
1 11.0363 -5.41274 9.27134
1 10.5631 -6.71959 9.11973
1 9.56578 -6.71429 8.07568
1 9.27908 -7.93526 8.34672
1 9.20006 -6.904 9.35015
1 8.02063 -7.88695 8.5917
1 8.48944 -6.89848 9.61059
1 9.7465 -6.38272 8.95452
1 9.31888 -5.14457 7.96766
1 9.28971 -4.30878 9.05649
1 9.25536 -4.43796 7.41787
1 11.0141 -5.07174 7.82738
1 10.0776 -5.23657 9.10392
1 9.66659 -3.51532 9.1425
1 9.96502 -2.58332 10.4007
1 9.58424 -2.46735 11.8734
1 9.92611 -1.49354 11.0993
1 11.3014 -1.92201 11.4026
1 11.575 -0.722894 10.644
1 12.3153 0.131073 11.8648
1 11.3817 -0.97707 11.1972
1 10.009 -0.163362 11.2942
1 8.7634 -0.753472 10.7875
1 8.69658 -0.727091 9.25184
1 7.79964 0.0363562 8.61331
1 8.65944 0.0936116 9.98628
1 7.51427 -1.19449 10.5637
1 6.76218 -0.38982 9.43887
1 6.19686 0.0285269 8.01972
1 7.45348 -0.378951 8.3788
1 7.14436 0.450502 7.28199
1 6.96706 1.32274 8.57748
1 8.22116 0.723785 8.31396
1 9.34444 0.200408 7.40207
1 10.7086 0.231856 7.69197
1 12.1294 0.861074 7.00158
1 12.3265 2.0581 6.87471
1 11.1959 1.02209 7.37051
1 11.3753 1.94421 8.29339
1 11.1436 2.06171 7.20159
100
Atoms. Timestep: 1500
1 9.69712 -3.93167 6.18255
1 10.9251 -3.75615 5.32099
1 9.63194 -3.72438 6.14657
1 8.44417 -2.89516 6.54828
1 8.45797 -2.06784 7.63687
1 9.78771 -2.87822 7.21029
1 8.95839 -1.83772 7.92198
1 9.75524 -0.803347 7.3218
1 9.84493 0.742719 7.06816
1 9.20321 -0.376282 7.19188
1 9.15405 -0.531657 8.78369
1 9.63581 -2.157 9.00477
1 10.9928 -2.2659 9.68121
1 10.1279 -2.02742 8.44434
1 8.9889 -1.81847 9.43844
1 9.63543 -2.477 8.34746
1 10.7462 -3.01267 8.46643
1 10.523 -2.50312 7.23078
1 9.51245 -3.57028 6.67697
1 8.32274 -2.72992 6.19898
1 9.7683 -2.61932 7.29707
1 10.6293 -2.40744 8.61651
1 10.7809 -3.56367 8.16135
1 9.973 -4.43251 7.69237
1 10.6511 -3.65469 8.93595
1 10.2962 -4.16375 10.3213
1 10.9597 -4.49212 11.6026
1 11.6297 -4.91 10.2129
1 11.2928 -3.7622 9.18748
1 12.3407 -2.56182 9.62402
1 11.404 -2.28352 8.33613
1 9.90323 -1.65843 7.9227
1 10.9884 -1.95496 7.00074
1 10.6068 -0.701359 6.00388
1 9.8979 -1.90236 5.63484
1 8.89173 -2.77239 5.33478
1 8.69025 -3.89891 6.1919
1 9.18605 -5.04358 7.06835
1 8.95019 -6.29874 6.1199
1 10.0685 -5.75187 5.9227
1 10.359 -4.71951 5.05509
1 10.8367 -5.80857 6.22937
1 10.3555 -4.62035 6.83987
1 11.1102 -3.92304 7.97544
1 10.1694 -4.81733 8.33293
1 10.8652 -3.75619 8.80042
1 11.4475 -3.37154 7.41143
1 11.1656 -3.54149 9.02963
1 10.7402 -2.27511 9.18803
1 9.44637 -1.98509 9.69044
1 9.75784 -3.5758 9.50142
1 10.3364 -4.08068 8.20083
1 9.19431 -4.65555 9.35307
1 9.50948 -4.56585 8.04825
1 7.99608 -4.49667 7.97809
1 8.69816 -4.83836 9.42123
1 9.1423 -4.97891 7.88788
1 9.89525 -4.14565 6.91192
1 8.5812 -4.50168 7.06077
1 10.3289 -4.85492 6.58418
1 9.11014 -3.82063 6.42889
1 8.95064 -5.05373 7.14551
1 9.06496 -5.74198 8.39119
1 8.28104 -7.04254 9.39407
1 8.4438 -8.07189 8.06533
1 9.00644 -7.13958 7.06515
1 10.1754 -6.39224 6.90774
1 8.88737 -6.63518 6.90232
1 8.85164 -5.51195 7.85682
1 9.29244 -4.62093 9.04879
1 8.16241 -5.515 8.62266
1 7.82306 -4.81452 9.63711
1 8.94582 -4.0555 9.25529
1 10.2336 -2.82327 9.81546
1 11.2251 -2.42949 11.4011
1 9.91926 -2.51543 11.3423
1 9.74234 -2.54557 9.80664
1 11.0244 -2.18609 8.89067
1 10.5744 -0.953392 9.51124
1 9.6248 -2.34696 9.22602
1 9.4737 -2.53085 10.8532
1 10.7032 -1.79617 11.313
1 9.80995 -1.65527 10.3651
1 9.66782 -1.84508 11.6576
1 8.02272 -1.55732 12.2735
1 7.82702 -1.11539 10.7729
1 6.92557 -1.96984 10.2997
1 7.17238 -0.626842 9.95765
1 6.06668 -0.817266 9.29827
1 5.82662 0.702682 8.87977
1 5.31372 -0.65107 8.14558
1 6.12232 -1.83725 7.26558
1 6.35347 -1.28324 5.51656
1 7.627 -0.881841 6.03104
1 8.51038 -1.12493 7.28933
1 8.68435 0.204169 7.45095
1 8.93376 1.60394 7.0324
1 8.45211 0.16036 7.22675
1 9.73886 -0.405077 7.84363
1 10.3319 0.339042 8.69693
100
Atoms. Timestep: 1750
1 6.63945 -2.08974 8.13609
1 8.10777 -2.02846 7.85385
1 8.86755 -1.0247 8.28712
1 9.50349 -2.30742 8.72045
1 10.2675 -1.18418 8.53091
1 10.6086 0.334355 8.45865
1 10.5478 -0.945635 8.02809
1 11.9914 -1.15868 7.27315
1 11.8909 -2.31135 8.41571
1 13.2002 -1.66898 7.4846
1 11.9508 -0.752393 7.46856
1 11.3056 -1.92786 6.42585
1 10.1276 -2.02211 7.36129
1 8.7689 -2.1983 7.8116
1 7.559 -2.76772 8.56652
1 7.02411 -4.24873 8.04616
1 8.4949 -3.92659 7.5312
1 7.72917 -3.30977 9.01188
1 8.26193 -1.89099 9.62443
1 9.48694 -1.86539 9.24262
1 10.6997 -2.92431 9.25521
1 11.7748 -3.89225 9.78375
1 11.0211 -4.55623 10.9558
1 12.1442 -3.28988 10.8202
1 13.4877 -4.32974 11.459
1 12.5377 -5.46174 10.3475
1 11.2913 -4.92701 9.8041
1 12.1515 -3.88612 9.37025
1 11.4383 -5.06599 9.00432
1 11.6861 -3.87589 9.78914
1 11.7956 -3.80909 8.33825
1 10.4172 -4.46928 8.0371
1 9.4034 -3.40532 8.0589
1 9.99509 -4.06578 7.07105
1 10.0977 -3.13922 8.02878
1 10.5937 -2.66059 6.72253
1 11.0782 -3.66288 6.14117
1 10.897 -3.2287 4.79158
1 10.6945 -1.89508 5.93859
1 10.1252 -2.93048 6.83028
1 8.76382 -2.35963 6.31485
1 9.89449 -2.21363 5.31712
1 9.27244 -3.3997 6.27875
1 9.95137 -3.03946 7.70114
1 11.2226 -3.65102 7.25071
1 11.6238 -4.85807 7.35372
1 12.4944 -5.89638 8.10753
1 12.6131 -4.88584 7.22841
1 11.1913 -4.7209 7.46792
1 11.4443 -3.61437 8.51437
1 10.5019 -2.35624 7.83821
1 10.8323 -1.57518 9.37227
1 10.9761 -2.51427 8.10986
1 9.35552 -2.31365 8.94548
1 10.0154 -1.86744 7.89784
1 9.58866 -3.53477 7.77961
1 9.43251 -2.36599 8.36994
1 9.52862 -2.60569 6.83396
1 10.0527 -2.61561 5.82922
1 10.1117 -3.95812 6.31641
1 10.5364 -5.61639 6.06033
1 10.5685 -6.99627 5.89105
1 9.62683 -5.97364 6.80562
1 10.5462 -4.97908 6.4243
1 9.39159 -4.85644 7.58724
1 8.55135 -4.79868 8.83632
1 9.97019 -5.5159 8.79849
1 9.80077 -5.28123 7.55346
1 8.31596 -5.42425 8.30797
1 8.40626 -5.07207 9.98917
1 8.12619 -5.16777 8.29128
1 9.06611 -4.40983 9.05421
1 8.76985 -3.41361 7.79873
1 7.93356 -2.57887 8.55025
1 9.1411 -2.87694 7.84385
1 10.7243 -2.42091 7.91952
1 9.53565 -2.97985 8.89311
1 8.90467 -4.25508 9.50043
1 9.60983 -3.06592 10.2705
1 10.9412 -2.3719 9.65872
1 10.3454 -3.54275 10.3832
1 8.64823 -3.40516 10.4586
1 8.51548 -3.67767 12.0968
1 8.12296 -2.17287 11.9175
1 6.94243 -1.69362 11.328
1 6.60381 -3.18129 11.686
1 7.30781 -3.17566 10.1831
1 6.39927 -2.61347 8.755
1 7.76096 -2.45875 8.33715
1 6.39542 -3.00401 7.7045
1 6.70712 -2.10057 6.43786
1 6.14032 -1.25791 7.58439
1 4.76855 -0.61134 7.71052
1 4.95218 -1.81512 8.48443
1 5.28204 -0.930018 7.38662
1 5.59929 -1.84581 8.29246
1 6.33875 -0.496155 7.55664
1 5.40398 -0.626442 6.77267
1 5.85933 0.618433 6.32231
1 7.00098 0.890415 5.30815
100
Atoms. Timestep: 2000
1 6.18303 -0.193104 11.2761
1 7.31964 -0.736933 10.2941
1 8.0627 0.586666 10.5434
1 8.6766 -0.452647 9.40518
1 8.45785 -1.80976 8.42546
1 9.85718 -1.70183 8.45247
1 10.3975 -0.729196 9.5425
1 10.4509 -2.16861 9.43085
1 9.43039 -2.29869 8.19701
1 10.8965 -2.22374 8.44021
1 12.1251 -2.54169 7.62946
1 10.5143 -2.85638 7.8527
1 10.016 -2.26322 6.77549
1 9.72163 -1.7627 5.58785
1 8.81966 -1.59344 6.73543
1 9.16634 -2.01055 7.85329
1 8.17283 -1.54048 9.25978
1 9.44747 -2.15953 10.4056
1 9.49612 -3.73657 10.2923
1 10.5754 -4.54306 11.0297
1 10.1723 -5.6298 10.2663
1 11.316 -4.68505 10.6046
1 11.7611 -3.69483 11.6771
1 11.0483 -4.1881 10.7021
1 12.3121 -3.96805 10.1021
1 12.1161 -4.27152 8.93003
1 13.3306 -4.67385 9.38985
1 13.8727 -3.25992 8.50796
1 13.6013 -4.28382 7.1802
1 12.3283 -5.30143 7.49041
1 10.9068 -4.7789 8.01921
1 12.1517 -4.83256 8.82999
1 11.008 -5.00509 8.01171
1 9.38967 -5.26298 8.03811
1 9.96791 -4.03328 7.42638
1 11.3193 -3.4581 6.50672
1 10.9613 -2.39359 5.39301
1 10.0908 -1.05722 5.04651
1 11.4284 -0.466467 5.24035
1 10.7079 -1.54391 5.84326
1 10.0362 -0.920517 7.28588
1 11.3604 -0.837665 8.10101
1 10.9561 -2.24736 8.08034
1 9.63704 -2.79703 8.26956
1 10.2004 -3.87298 7.55954
1 11.0764 -5.17398 8.23843
1 10.792 -6.02492 6.92365
1 12.1928 -5.95983 7.15407
1 12.3108 -4.56082 7.41269
1 11.3137 -3.31855 7.31404
1 10.038 -3.55799 6.92554
1 9.77258 -2.55282 5.99869
1 10.588 -1.37739 6.58377
1 11.8831 -1.7616 7.54538
1 11.2691 -0.776286 8.33924
1 11.2142 -2.47166 7.72078
1 12.0562 -1.91569 6.81272
1 11.3239 -2.29866 7.80966
1 10.3774 -1.51607 6.75691
1 10.7877 -2.78791 6.46443
1 10.4815 -4.32214 6.17707
1 11.7866 -4.80579 6.09618
1 11.3596 -5.5368 7.6991
1 11.7807 -4.26233 7.29685
1 10.8927 -5.60268 6.85866
1 10.4096 -4.86777 8.18175
1 9.25769 -4.50677 7.37601
1 9.32777 -5.8965 7.80494
1 8.6184 -4.62697 7.88559
1 7.3331 -3.87691 8.07122
1 8.34762 -3.5805 6.97779
1 6.75721 -4.44681 7.35137
1 7.4222 -4.58749 6.33111
1 8.95496 -4.32415 6.14069
1 8.81033 -4.20453 7.63737
1 8.20004 -5.58965 7.96427
1 9.23625 -4.30476 7.72338
1 9.74471 -3.42071 8.77957
1 10.9202 -3.29089 9.64555
1 10.2038 -3.56975 11.1407
1 8.65761 -3.01785 11.5918
1 8.14308 -4.35413 12.3367
1 7.17868 -4.79406 11.0597
1 6.93835 -3.27653 11.0229
1 6.61636 -4.6013 10.6214
1 8.10185 -4.07263 10.3593
1 6.92888 -3.31691 9.56458
1 5.49696 -2.69864 9.01192
1 6.79222 -2.17476 9.51255
1 5.92295 -3.16894 8.60796
1 5.55736 -2.0922 9.62965
1 4.86526 -1.14924 8.64147
1 4.88642 -1.07287 7.24969
1 3.80912 -0.675804 6.50559
1 5.14044 0.301953 6.41209
1 3.56175 0.0225903 6.60543
1 4.99988 -0.502444 6.98143
1 6.27229 -0.533272 6.63344
1 6.28545 -1.46042 7.87591
1 5.32845 -1.75551 9.10023
100
Atoms. Timestep: 2250
1 7.05025 0.0940381 12.1188
1 7.5665 0.792662 10.6963
1 6.81448 -0.49812 10.1395
1 6.50536 -1.62866 10.7336
1 7.38615 -2.88375 11.0796
1 8.66715 -2.46151 10.6553
1 8.28449 -2.6676 9.07477
1 8.54517 -2.19075 10.6547
1 7.95493 -2.41403 9.51577
1 7.05192 -2.30343 8.32772
1 8.0242 -2.4703 9.49839
1 9.29872 -1.64702 8.93107
1 10.9926 -1.49033 8.71716
1 12.5162 -2.04135 9.20998
1 12.2116 -1.58387 8.03547
1 12.8065 -2.84086 8.27587
1 12.5925 -2.66319 7.05875
1 11.7174 -2.25722 8.31692
1 11.8427 -1.49568 10.0619
1 11.8112 -2.58495 10.9353
1 11.9085 -2.73505 9.17395
1 10.9547 -3.94791 8.31851
1 9.91182 -4.52954 8.74068
1 11.2146 -4.49181 9.17307
1 11.3257 -5.40997 9.96236
1 10.5931 -4.31999 9.23881
1 9.85593 -5.04216 8.35752
1 11.1769 -4.58535 7.46993
1 12.3426 -5.4042 7.61659
1 11.8174 -5.9963 6.41594
1 12.3593 -4.71833 7.01076
1 13.7858 -4.28794 6.16833
1 13.8319 -2.78492 6.20834
1 12.9141 -1.81566 5.34009
1 11.686 -1.39236 6.32056
1 10.9456 -2.47351 6.50454
1 10.1823 -1.30055 7.20008
1 9.19828 -1.69994 8.05226
1 8.53729 -2.61938 8.91878
1 9.61183 -2.85697 8.08144
1 10.8657 -2.48694 8.27997
1 12.1725 -2.21569 8.35495
1 11.3637 -2.68952 9.59318
1 11.9939 -3.56391 8.26244
1 10.6349 -3.73521 7.44062
1 9.33451 -3.91395 7.13279
1 9.74882 -4.12578 8.61856
1 10.2274 -4.76594 7.28866
1 9.66399 -4.22939 6.15175
1 11.1842 -4.06677 6.05876
1 9.98793 -4.11021 4.703
1 11.1142 -3.60988 5.77968
1 12.2861 -2.7596 5.37647
1 11.4889 -1.55795 5.2515
1 12.7216 -2.12216 5.91035
1 14.0308 -1.95042 6.62531
1 12.4838 -1.8756 6.17941
1 11.355 -1.54857 7.41013
1 10.5746 -3.12674 6.95093
1 11.608 -3.78364 7.55581
1 12.0889 -2.75778 8.36308
1 10.8479 -2.07145 7.64715
1 10.3954 -2.55902 6.56813
1 10.2594 -3.64037 5.51364
1 9.4397 -4.88735 5.70033
1 10.3293 -4.71964 6.59817
1 10.2141 -3.53541 7.28778
1 9.14431 -2.37829 7.14147
1 8.11585 -3.37356 7.50519
1 8.05242 -2.88539 6.08338
1 8.96 -4.0718 6.35268
1 7.99784 -4.96331 5.80978
1 8.56165 -5.55512 6.61277
1 9.82358 -4.57693 6.73766
1 8.70528 -5.36322 6.41702
1 9.91381 -5.41749 7.36951
1 9.5426 -6.62796 8.43159
1 8.65407 -5.64028 8.94007
1 8.31138 -4.7039 10.2334
1 7.72232 -5.9177 11.0878
1 6.51698 -5.57796 12.1486
1 6.68916 -5.3981 10.5066
1 6.89477 -4.52491 9.29549
1 7.66741 -3.29348 9.16915
1 6.38721 -3.89755 9.77786
1 6.07638 -5.3674 10.0358
1 6.00686 -3.90431 9.99247
1 4.87782 -2.88567 9.99414
1 5.68428 -1.82824 9.25724
1 4.77823 -0.751264 9.10327
1 6.21087 -1.61331 8.75198
1 6.2768 -0.32282 8.18457
1 7.31062 -1.22774 8.73942
1 7.44584 -0.82978 10.228
1 6.39159 -0.75586 8.80529
1 5.75272 -0.189608 7.58089
1 5.54033 -1.25419 8.56197
1 5.08704 -1.88162 9.82343
1 4.7505 -0.401217 9.78308
1 6.03217 -0.833906 9.02052
100
Atoms. Timestep: 2500
1 7.34832 -3.95233 11.4185
1 7.53518 -4.05549 12.8764
1 6.29041 -4.00771 12.0784
1 5.33306 -3.37008 11.0972
1 5.84815 -1.77844 10.7358
1 5.60679 -0.619477 10.0697
1 5.55333 -1.89288 10.7506
1 5.30391 -3.41637 10.5878
1 6.28445 -2.81125 11.5857
1 7.77424 -2.545 10.8743
1 8.32401 -2.01059 9.53958
1 9.33337 -2.22687 10.0035
1 10.7403 -2.73963 9.92134
1 11.1226 -2.48394 11.5931
1 11.6952 -1.85646 10.556
1 11.4963 -0.964822 9.13948
1 11.4975 -2.13468 9.83693
1 11.9219 -2.34275 8.39093
1 13.0801 -3.36735 7.7129
1 14.3608 -2.36651 7.15013
1 12.6869 -1.93724 6.97324
1 12.7013 -2.87918 8.15808
1 11.3508 -2.84914 8.14345
1 11.1606 -4.25969 7.91982
1 10.1777 -5.43108 7.76366
1 11.6114 -4.58173 7.06241
1 11.8966 -4.12995 5.91397
1 11.649 -3.53631 7.30055
1 11.6296 -1.99129 6.97278
1 11.6547 -3.17652 5.818
1 12.412 -2.26407 5.28495
1 12.2836 -2.04784 6.51933
1 11.0398 -1.21026 6.59582
1 9.92061 -2.00698 7.31872
1 9.83628 -1.7389 8.77595
1 10.9314 -0.715868 8.06308
1 12.3315 -1.17066 7.05371
1 11.8711 -1.93841 8.16523
1 10.8898 -2.08573 8.81202
1 10.2086 -2.85226 9.86179
1 9.6967 -4.11186 8.78357
1 10.0792 -5.69272 8.28818
1 11.1821 -6.19345 7.41645
1 10.2994 -5.32822 8.39353
1 11.2544 -4.16655 8.46766
1 12.2951 -3.47573 7.58426
1 11.465 -2.15797 7.04206
1 9.87381 -2.36197 6.89823
1 10.6847 -3.6184 6.30092
1 11.0164 -3.45636 4.87297
1 12.1709 -3.46042 5.82966
1 13.4539 -2.48719 5.31728
1 12.0796 -2.63455 6.20604
1 12.3121 -3.44169 5.02703
1 11.9124 -4.99273 5.07544
1 13.1145 -4.46449 5.95144
1 12.1269 -3.62173 5.5873
1 12.7989 -3.1811 7.19168
1 12.036 -1.76194 6.95404
1 11.4881 -1.05331 5.48447
1 11.5834 -2.44989 6.39381
1 11.0955 -3.66209 6.89833
1 11.3787 -2.37257 6.7452
1 9.96993 -2.1216 7.09445
1 11.3223 -2.24888 7.20976
1 10.6477 -1.28365 6.21859
1 9.54778 -0.232804 6.20996
1 8.0919 -0.982576 6.18898
1 8.36761 -2.30778 5.66905
1 8.09412 -3.22126 6.77696
1 8.79764 -4.55002 6.5319
1 9.95855 -5.18103 6.61298
1 9.31529 -6.08109 5.77079
1 10.0426 -5.10363 6.98599
1 8.76166 -4.92468 7.8392
1 9.04948 -6.16743 8.24591
1 9.19107 -5.17588 9.42547
1 9.51499 -6.67727 9.04263
1 8.46509 -7.97505 8.55525
1 7.13704 -7.7939 9.54025
1 7.92224 -6.39585 9.43462
1 7.44864 -5.12174 9.50388
1 6.0808 -4.667 10.0051
1 6.20598 -3.23906 10.5411
1 5.04583 -2.75082 10.6486
1 4.81027 -2.91432 9.13142
1 3.47815 -2.23478 8.61756
1 3.61329 -3.25396 7.89652
1 4.21014 -1.97032 8.19329
1 5.14205 -2.49407 9.34754
1 6.90641 -2.87621 9.25882
1 6.33572 -2.11871 10.3387
1 6.52331 -0.911678 11.1551
1 6.18845 -2.25405 10.4993
1 6.21957 -1.19185 9.23552
1 7.00034 -1.90117 8.31226
1 8.34743 -1.6389 8.72814
1 7.97447 -0.312314 9.04252
1 6.65051 -0.60819 9.42185
1 5.62291 0.505598 10.0596
100
Atoms. Timestep: 2750
1 3.51094 -6.00287 11.3727
1 4.80598 -6.77006 12.0648
1 5.50021 -5.63314 11.3481
1 5.47346 -4.32874 12.1294
1 5.39721 -2.79555 12.0271
1 4.41184 -1.74451 12.3326
1 5.01822 -1.18929 11.1908
1 5.55713 0.0105631 10.5397
1 7.05396 -0.520495 10.6961
1 7.21323 -1.2126 12.0544
1 7.85216 -2.22295 12.8322
1 9.32258 -2.20993 12.8025
1 9.68358 -1.65496 11.2854