100
Atoms. Timestep: 0
1 11.4428 -5.56904 11.0272
1 10.77 -5.60318 10.2801
1 11.3949 -6.24517 9.87938
1 10.5617 -6.56119 9.69909
1 10.652 -7.01609 8.84847
1 9.94764 -6.36978 8.88163
1 9.19395 -6.84006 8.41075
1 9.12577 -5.78109 8.4093
1 9.81594 -6.19066 7.83768
1 10.5025 -5.66373 8.23167
1 11.1023 -5.50162 8.94124
1 10.7556 -4.844 9.47521
1 10.037 -5.00189 8.87943
1 9.2134 -4.56114 8.66972
1 8.76913 -4.70138 9.51585
1 8.70131 -3.78189 9.53469
1 7.94482 -3.37236 9.32601
1 7.06029 -3.14327 8.98686
1 7.06825 -2.88853 8.03647
1 7.56013 -2.85184 7.19763
1 8.30288 -3.1275 6.63985
1 7.78219 -2.46031 6.21796
1 8.23845 -2.06691 6.96524
1 7.72553 -1.84898 7.77661
1 7.60156 -2.24968 8.70194
1 8.20483 -2.88314 8.28254
1 8.84741 -3.49177 7.76775
1 8.38267 -4.06072 7.22877
1 8.09863 -4.52385 8.02738
1 7.57118 -3.76553 7.76972
1 6.85422 -4.07267 8.34126
1 6.81194 -4.80508 7.74479
1 7.31531 -5.39422 8.32189
1 7.10252 -6.16627 7.81682
1 6.42166 -6.85222 7.77727
1 6.68416 -7.18698 8.60948
1 6.7695 -7.96795 9.14473
1 7.472 -7.93767 8.44244
1 8.04471 -7.92013 7.70634
1 7.34274 -8.44262 7.3268
1 6.74683 -7.67781 7.18469
1 6.43128 -8.06699 6.3831
1 6.98069 -7.52678 5.80115
1 7.68479 -8.18637 5.86694
1 7.88993 -7.77444 6.70077
1 7.46907 -6.90713 6.97077
1 6.881 -6.60472 6.20337
1 6.11311 -6.47673 6.78356
1 5.36724 -6.51206 7.35108
1 5.08208 -6.2467 8.2419
1 5.15133 -6.26538 9.15813
1 5.62544 -5.45904 9.36353
1 6.52601 -5.14877 9.17259
1 6.75071 -6.09482 9.02188
1 7.49263 -5.91571 9.57596
1 8.15811 -5.604 9.00934
1 8.53868 -6.44597 9.24226
1 9.33858 -5.97619 9.50176
1 9.83081 -5.94523 10.3053
1 9.67493 -5.03464 9.93609
1 9.57724 -4.27111 10.4275
1 9.85567 -5.07828 10.8361
1 10.7921 -4.68957 10.9395
1 10.7271 -4.13683 10.1368
1 10.0675 -3.44665 10.1184
1 9.75601 -3.815 9.20873
1 9.12388 -3.25812 8.75893
1 9.776 -3.57334 8.08692
1 10.555 -3.5418 7.50384
1 11.3297 -3.72068 8.02186
1 12.2428 -3.52395 8.27775
1 12.7017 -2.70203 8.25596
1 12.4312 -1.902 7.77978
1 12.7727 -1.09492 8.20093
1 13.1102 -1.29898 7.38328
1 13.8729 -1.75205 7.69887
1 13.773 -0.737898 7.9661
1 13.1586 0.0603943 8.06724
1 13.2495 0.0373323 9.02809
1 12.9459 0.890064 8.59758
1 12.9667 1.61463 7.93646
1 12.2407 1.23857 7.45588
1 12.8632 1.28038 6.64874
1 13.7348 1.09339 6.15251
1 13.8707 1.98947 5.84421
1 13.0052 2.2137 5.62619
1 12.3616 2.1959 6.29372
1 11.5784 2.78393 6.03825
1 12.1706 3.28917 6.55331
1 11.3319 3.17128 6.93426
1 10.9574 3.98306 6.5766
1 11.5022 4.30406 7.34098
1 10.9495 4.99586 7.02293
1 10.7159 5.34453 7.89292
1 9.83296 5.09681 7.51219
1 9.87703 6.00611 7.74935
1 9.87361 6.48773 8.61468
1 9.6915 5.95213 9.36055
1 9.45394 6.83085 9.6906
1 10.3685 6.99488 9.40339
100
Atoms. Timestep: 250
1 13.8972 -7.44836 10.0457
1 13.6078 -9.00728 10.3528
1 12.1588 -8.44322 9.50411
1 12.9639 -7.2215 8.90326
1 11.4286 -7.04046 8.5827
1 11.774 -8.53724 7.58107
1 12.8937 -7.34217 6.87357
1 11.4532 -7.6259 6.15453
1 10.3428 -8.34751 6.65967
1 9.29043 -8.29036 7.69733
1 9.9457 -6.85495 8.42149
1 9.39181 -5.41202 9.18279
1 8.7562 -5.76009 7.97291
1 7.99957 -4.73529 7.81962
1 9.01938 -3.59049 7.06482
1 8.09811 -4.33878 7.7671
1 9.54796 -4.38679 8.17056
1 9.42051 -3.04714 8.67882
1 8.00612 -2.51669 8.48703
1 7.34199 -1.69536 7.13825
1 7.41144 -0.25073 7.74023
1 7.87049 -0.585405 6.25901
1 8.16663 -1.33501 7.62501
1 9.31349 -0.545399 7.25308
1 8.11783 -0.0298531 6.70067
1 8.82477 -1.4833 6.51135
1 7.43263 -2.23971 6.02381
1 5.97435 -3.25637 5.66232
1 5.24088 -4.22597 6.59084
1 5.15167 -5.60784 6.07411
1 6.38144 -4.35271 6.67987
1 7.82691 -5.03678 6.80444
1 7.13816 -4.84587 8.36273
1 7.60132 -6.07139 8.02503
1 8.59929 -5.03046 8.63833
1 8.83129 -6.74377 8.4562
1 7.69054 -7.33619 8.1096
1 6.52895 -8.10065 7.84697
1 5.13661 -8.11517 6.62517
1 5.71833 -9.37146 5.94586
1 7.1125 -10.1914 5.32491
1 6.96139 -9.58461 3.76909
1 6.7167 -8.49839 3.71931
1 5.422 -8.93621 4.41743
1 4.86769 -8.83949 3.18822
1 3.94447 -9.32516 4.65217
1 4.35379 -8.10762 5.79824
1 5.18969 -6.71174 5.34713
1 4.25948 -7.62381 6.48647
1 3.92075 -6.31713 7.36852
1 4.353 -6.80524 8.76388
1 4.95508 -6.55071 9.91469
1 4.93719 -5.66491 9.26382
1 5.05255 -5.59374 11.1655
1 5.49581 -6.2498 12.396
1 6.44622 -6.58463 13.6295
1 5.96336 -5.50184 12.4161
1 5.74003 -5.93839 13.715
1 7.20942 -6.12055 13.3504
1 7.62336 -5.48552 14.7565
1 8.20684 -4.04274 13.4615
1 9.14745 -3.40188 14.1386
1 9.68573 -2.95481 13.0419
1 9.41751 -1.46276 12.2398
1 10.1426 -1.40881 11.0422
1 10.5441 -2.39921 11.9337
1 11.6889 -3.06627 11.2425
1 12.3992 -3.03602 10.0624
1 14.3359 -2.92208 8.9559
1 14.3162 -1.59251 8.41034
1 13.4706 -2.94353 8.48567
1 15.5965 -2.90956 8.00083
1 16.3464 -2.38477 7.17205
1 15.1803 -1.16556 6.93105
1 15.0555 -2.34775 7.52102
1 15.4357 -1.71048 8.96888
1 14.9183 -0.430043 9.26723
1 13.3423 0.69249 8.94697
1 12.6421 1.57041 7.87766
1 11.8515 2.25442 7.01584
1 12.0276 1.21195 7.82775
1 13.0764 0.380897 7.79621
1 12.3878 -0.357543 6.3813
1 13.2357 1.01026 7.15774
1 13.7683 2.75731 7.26208
1 12.7918 2.00444 6.50648
1 13.6925 2.96561 6.65975
1 12.4587 3.8958 5.7442
1 13.3826 3.96388 6.43944
1 11.9813 5.42563 6.49892
1 11.2013 4.11963 7.02686
1 9.88177 4.53785 7.77881
1 9.76259 5.4746 8.19183
1 11.4564 5.09514 7.64981
1 10.6612 5.72694 8.42374
1 10.7349 7.1892 8.306
1 9.08599 7.08383 8.60044
1 10.2402 6.86483 7.88923
1 9.20259 5.94847 9.03482
1 10.5193 6.92876 10.0668
100
Atoms. Timestep: 500
1 12.3286 -9.32309 7.49331
1 13.5967 -9.19295 7.28089
1 14.0278 -9.98036 6.21738
1 13.6838 -10.4716 7.56187
1 12.8931 -10.5113 6.63286
1 12.9954 -9.12736 6.35903
1 12.0654 -7.81983 5.69999
1 12.1038 -7.72708 7.05796
1 11.2131 -6.93996 8.30766
1 10.8666 -5.74683 7.84048
1 11.5799 -5.8792 6.63009
1 10.744 -6.21817 5.52206
1 10.607 -7.00058 6.2793
1 9.66823 -7.75304 5.18389
1 10.096 -6.30494 5.81264
1 9.47547 -5.28478 4.77384
1 9.07586 -4.51024 6.297
1 9.46175 -3.34745 5.60899
1 9.66515 -1.94029 5.98212
1 10.7883 -2.25617 7.10359
1 10.5506 -1.62161 8.89512
1 9.13073 -1.31808 9.13161
1 9.16039 -2.06058 10.2616
1 8.2728 -2.0327 8.91904
1 6.62768 -1.65565 7.92008
1 5.83599 -2.01246 6.58608
1 6.85966 -2.69536 7.21683
1 7.09864 -1.55607 6.14059
1 8.42245 -1.52425 7.05726
1 8.10578 -3.02071 5.94101
1 8.01206 -3.62185 7.25653
1 7.30318 -4.74222 6.91687
1 5.98392 -5.21492 6.43378
1 4.97709 -6.00333 5.32814
1 5.07462 -7.24316 6.32172
1 5.5654 -8.8794 6.10732
1 4.68456 -9.77385 6.95681
1 5.25923 -9.06253 5.68387
1 5.61064 -8.09748 5.04375
1 4.4572 -7.81984 4.20892
1 4.48603 -8.06494 5.92113
1 4.39441 -9.71893 6.02291
1 4.66211 -8.57838 4.71925
1 4.51384 -8.07602 6.51582
1 4.13448 -7.43929 5.31396
1 3.47265 -7.4178 6.30011
1 3.95728 -6.4501 4.87307
1 3.86228 -7.32031 6.24652
1 4.45244 -7.43826 7.61935
1 4.80704 -7.95995 9.11921
1 3.7977 -9.02347 9.85054
1 4.71739 -8.33451 8.70294
1 4.55649 -6.87477 9.50487
1 5.58234 -6.51745 9.85499
1 4.93577 -5.64583 10.8126
1 5.26111 -6.39528 12.0393
1 5.67246 -5.20488 12.2575
1 5.55925 -4.01906 13.1346
1 7.0061 -4.1458 12.7028
1 7.42995 -3.76249 14.0951
1 7.39526 -2.74424 12.7304
1 8.46754 -3.93126 12.3251
1 9.20505 -2.54321 12.6885
1 10.2728 -3.13989 12.7337
1 10.4004 -1.94312 11.2761
1 11.0619 -0.195944 11.5031
1 9.9823 0.574276 12.4617
1 10.6512 -0.774163 11.6274
1 12.1117 -1.1932 11.3069
1 11.3356 -1.81687 10.4207
1 12.9146 -2.89528 11.1075
1 14.4183 -3.01509 11.8632
1 14.7197 -1.77439 11.0244
1 14.8831 -0.423071 10.5909
1 15.0332 0.402886 9.47103
1 14.915 0.404492 8.06181
1 15.9169 1.11989 8.48694
1 15.3565 1.39512 9.59607
1 13.3812 1.14084 9.62371
1 13.5191 0.516133 10.9001
1 13.9959 0.777645 9.71137
1 14.5636 1.60151 8.22969
1 13.7638 1.43409 6.99918
1 12.3246 1.78173 6.26049
1 11.0596 2.7397 6.2132
1 12.8266 3.3857 6.85123
1 11.8588 3.76448 7.95004
1 12.7927 4.22519 7.08157
1 13.3115 5.35563 8.24219
1 12.409 4.88623 9.26676
1 12.2734 5.19316 7.87978
1 13.393 3.96069 8.05729
1 11.9335 4.83798 8.73697
1 10.4389 4.98175 9.427
1 10.2096 4.72319 7.83608
1 10.5108 4.06884 6.67332
1 11.0664 5.38137 7.37391
1 10.0492 5.48174 8.41406
1 11.3338 6.52883 8.70595
1 10.8462 7.13477 7.10629
100
Atoms. Timestep: 750
1 15.1685 -10.7995 6.19294
1 14.3226 -9.61679 6.35234
1 12.8744 -9.53187 5.61265
1 13.583 -10.8362 5.99449
1 12.7664 -10.3288 7.20652
1 11.2928 -9.61873 6.64951
1 12.4044 -9.25694 6.78085
1 13.9824 -8.96159 7.10139
1 13.1178 -8.12874 6.12364
1 13.6401 -6.57067 6.78697
1 12.3213 -5.90948 6.77156
1 11.5831 -4.96649 8.05535
1 12.2159 -3.93046 7.09721
1 11.33 -4.72454 6.05697
1 11.4476 -3.21494 5.88919
1 11.6124 -3.87068 4.69715
1 10.1519 -3.76457 4.7906
1 11.1072 -3.28703 5.36229
1 11.1068 -3.32607 6.75149
1 10.4083 -2.72273 5.45877
1 10.1038 -2.32205 6.89777
1 10.8924 -3.44278 6.61949
1 9.42865 -4.03691 6.96914
1 10.2069 -3.54438 7.84431
1 8.96128 -2.60271 8.02413
1 7.59542 -2.47182 8.12732
1 6.85237 -2.89979 9.40332
1 6.59181 -4.41213 9.41574
1 7.48596 -4.23963 8.01633
1 6.00139 -4.69795 8.35421
1 6.9063 -5.30962 7.03872
1 7.26982 -4.39693 6.1801
1 6.60401 -5.60054 7.05031
1 7.00935 -4.97307 5.42499
1 8.00062 -6.24979 5.36025
1 7.55454 -7.17919 6.92946
1 6.7899 -6.40827 6.21022
1 6.46142 -7.26183 7.16246
1 5.03577 -8.17514 7.20119
1 4.58423 -9.34562 6.42977
1 3.75775 -8.55602 5.31862
1 3.44469 -7.35735 5.14148
1 1.85895 -6.95648 5.35893
1 1.86294 -6.42138 6.64051
1 3.01779 -6.5079 7.59902
1 2.4233 -5.54366 6.35094
1 3.06214 -6.85903 7.05169
1 2.33976 -7.66085 8.16501
1 2.78644 -6.54791 9.16445
1 3.45741 -5.50741 8.65007
1 4.05051 -4.34865 7.49343
1 5.43359 -5.10148 7.49025
1 4.9619 -4.67395 8.93929
1 6.14426 -5.82902 9.3868
1 7.17311 -6.254 10.4596
1 7.25835 -5.79947 9.08584
1 7.84449 -7.21938 7.91566
1 8.87074 -6.936 8.95623
1 10.0155 -6.3473 8.12864
1 9.59156 -4.85226 8.59514
1 8.90542 -3.65376 9.23258
1 7.86358 -3.80035 10.6828
1 6.98783 -2.87509 11.2524
1 6.28244 -2.04256 12.498
1 5.56031 -1.51975 13.335
1 6.56576 -2.02058 12.6002
1 7.51875 -1.93104 12.035
1 8.97401 -1.8089 13.0677
1 10.3607 -1.46993 13.085
1 11.0598 -1.17575 11.622
1 10.8679 -0.264902 11.2449
1 11.3416 -1.4221 10.3711
1 12.3725 -2.19287 10.6696
1 13.2889 -3.27184 10.2345
1 14.2869 -2.86565 9.36768
1 14.1896 -2.31735 11.0865
1 13.6758 -0.671048 11.0457
1 13.5837 1.03379 11.111
1 13.9784 2.38274 10.107
1 13.7076 3.7065 10.5708
1 14.3871 3.89834 9.53305
1 14.1555 2.39113 9.75741
1 13.3084 1.39568 8.90497
1 12.8772 0.427897 9.44248
1 11.9289 0.768793 10.7613
1 11.5655 0.907598 8.99792
1 12.6091 1.81904 8.38546
1 12.6613 3.47145 8.9062
1 11.2139 3.38088 9.02863
1 11.8775 4.28781 9.88395
1 11.7205 5.72892 9.91517
1 11.7088 4.60496 8.79835
1 11.8141 6.19974 9.2351
1 12.3052 7.33006 9.03285
1 11.7353 6.5915 7.84532
1 12.4375 6.07698 6.8842
1 11.2172 6.48732 6.19607
1 11.0208 5.11131 6.03475
1 9.93986 5.12108 5.04104
1 10.1089 6.12586 6.30753
100
Atoms. Timestep: 1000
1 13.155 -11.4614 6.48969
1 14.0396 -11.0879 5.60443
1 13.4482 -12.098 6.36398
1 13.4566 -10.6758 5.85777
1 14.1096 -9.35301 5.01034
1 13.3143 -9.0448 6.07873
1 14.5576 -8.277 6.61899
1 14.111 -8.01908 8.28347
1 14.1353 -6.59613 7.74363
1 12.6557 -5.93019 8.12089
1 13.0908 -7.10443 7.99108
1 12.2961 -6.0189 6.9079
1 12.3608 -5.77677 5.46383
1 13.5249 -4.81923 5.59057
1 13.0444 -3.64679 6.78397
1 11.6067 -4.27938 7.12862
1 11.7473 -3.00044 6.36122
1 12.794 -2.21939 5.42353
1 12.1701 -3.24165 4.39381
1 10.9288 -2.48601 4.55075
1 9.75591 -1.75373 5.31059
1 10.1047 -3.2445 6.04375
1 9.4407 -3.98139 6.81049
1 9.13938 -3.43853 8.23188
1 7.73246 -4.32875 8.19516
1 6.68984 -3.96588 9.12423
1 6.30679 -5.00097 8.1182
1 4.95957 -4.48763 8.18442
1 4.06481 -3.95931 7.07552
1 5.44353 -4.29488 6.79755
1 6.41432 -4.48172 5.71404
1 7.42031 -3.61365 5.89571
1 7.57342 -4.85157 4.39726
1 7.94423 -5.90583 5.32446
1 7.63566 -7.24267 5.89108
1 6.67813 -7.55863 4.85483
1 6.60869 -6.4683 4.16364
1 5.34144 -6.65454 4.85864
1 6.29543 -7.9485 4.61937
1 5.29438 -7.0234 4.70747
1 5.88278 -6.37904 5.8067
1 5.2301 -5.13823 5.46197
1 4.50776 -6.59126 5.76538
1 4.51897 -7.47625 6.70832
1 4.98406 -6.27517 6.58388
1 3.81942 -6.15642 7.42751
1 3.40775 -5.20954 8.43991
1 4.20286 -4.26622 9.64596
1 2.95057 -3.41522 10.2516
1 4.4432 -3.97775 10.3667
1 4.18493 -4.6419 9.28218
1 4.56573 -5.99715 8.91764
1 5.94521 -5.87424 9.26189
1 7.42134 -6.40111 8.52663
1 7.53049 -4.97017 9.34817
1 8.73768 -5.52042 10.3918
1 7.81572 -5.74978 9.10571
1 8.11051 -6.1162 7.83668
1 7.7869 -5.99209 9.56697
1 8.8282 -5.48153 8.61274
1 8.59137 -4.00995 9.71369
1 8.23802 -3.0832 10.8449
1 7.76532 -1.40376 10.8302
1 8.5241 -2.34668 10.0181
1 7.98613 -1.58834 11.3607
1 8.40932 -2.95822 11.8285
1 7.70299 -2.4861 12.6585
1 8.21579 -1.34993 11.6424
1 9.14987 -1.08774 10.4822
1 8.19243 -1.41474 9.65253
1 9.47781 -2.0076 10.1971
1 9.1815 -2.16871 11.4978
1 8.85492 -1.80699 12.9957
1 10.0387 -1.04447 13.4491
1 10.8607 -0.764383 12.4868
1 12.0792 -0.805054 13.6
1 12.7687 -1.29446 12.0628
1 13.89 -0.361948 12.1397
1 13.8671 0.979185 12.6025
1 14.5128 0.633518 11.5614
1 15.3243 0.452244 10.144
1 13.5084 0.755833 10.2866
1 13.7713 -0.204944 9.22537
1 12.4495 -0.847906 9.4904
1 12.2078 0.546329 9.99622
1 11.6616 1.14948 8.83148
1 12.8308 2.39298 9.51783
1 12.2277 2.85948 11.058
1 11.8184 3.99463 10.58
1 11.3596 4.4 9.03249
1 11.7677 3.44267 10.0545
1 11.0862 4.16631 9.0737
1 11.5904 4.52388 7.22393
1 10.4265 5.22167 7.80776
1 10.284 4.98027 6.45705
1 10.7444 6.37749 6.78353
1 10.0314 7.4904 7.58998
1 10.5175 8.3051 6.11241
1 9.82945 7.32028 5.51873
1 10.0835 5.74325 5.59159
100
Atoms. Timestep: 1250
1 13.0197 -9.58176 7.48816
1 11.7656 -10.1803 7.91504
1 13.0053 -10.8248 6.95985
1 14.4081 -10.01 7.74681
1 15.7767 -10.5585 7.17827
1 17.0634 -9.64919 7.72516
1 16.4854 -8.84018 6.86144
1 15.7509 -9.08257 8.22682
1 14.6092 -8.38301 7.28334
1 14.3541 -6.87481 6.95289
1 13.7295 -7.16625 8.34408
1 13.2517 -5.82258 8.63294
1 13.7681 -5.55138 7.50056
1 13.2748 -4.68286 6.17875
1 13.5219 -3.94349 7.75716
1 13.0824 -4.1173 6.38668
1 12.3935 -4.56818 5.15404
1 12.9599 -3.32137 4.81124
1 12.0786 -4.00087 6.14596
1 10.7881 -3.25032 6.48169
1 9.55544 -3.65319 5.56628
1 8.54215 -4.45094 5.57451
1 9.05157 -2.94813 4.79407
1 8.57456 -2.94479 3.48875
1 7.30967 -2.7927 4.12688
1 6.32634 -3.42757 5.39278
1 7.67498 -3.7822 5.72619
1 7.12637 -3.79612 6.859
1 6.83275 -2.92679 7.65938
1 7.08539 -3.66927 6.44047
1 6.00628 -4.51809 5.6673
1 6.0926 -5.22389 4.23627
1 7.10793 -5.06314 5.50683
1 7.53425 -4.40525 4.26453
1 6.5975 -3.37561 3.61866
1 7.21511 -4.39371 4.00902
1 8.20735 -5.51152 3.56273
1 7.0372 -6.37045 4.04566
1 6.02024 -6.11769 5.00523
1 4.68034 -6.65354 4.22376
1 5.39466 -7.79881 4.53264
1 4.70949 -8.28493 5.77566
1 5.99363 -8.74562 6.7889
1 7.0421 -7.29032 6.84677
1 6.38718 -5.82531 6.02622
1 5.67627 -4.77768 6.57621
1 5.90073 -3.56567 7.02007
1 5.62528 -4.87038 7.27925
1 5.40684 -4.96521 8.84027
1 5.93849 -6.06803 8.0007
1 6.86489 -5.15234 8.71571
1 5.96975 -5.09077 10.0269
1 5.19928 -3.81549 9.83016
1 5.07267 -5.03071 10.705
1 6.73541 -5.16621 10.7496
1 7.79195 -4.99086 9.85598
1 8.02885 -3.38244 9.64987
1 7.58852 -4.24368 10.7633
1 8.29939 -3.48533 9.66383
1 8.11769 -4.60313 8.54081
1 7.66135 -5.528 7.76473
1 8.11767 -4.17332 8.30879
1 6.92556 -3.38178 9.43614
1 7.94113 -2.68794 8.96851
1 7.36076 -2.68173 10.2546
1 8.45689 -1.64095 10.318
1 9.60642 -0.851547 10.4269
1 10.3941 -1.16117 9.1379
1 9.88855 -0.59283 10.5403
1 10.1997 -0.091817 11.8944
1 9.47836 -1.10216 12.805
1 10.253 -1.26458 14.0519
1 10.9442 -0.994204 15.1108
1 10.0555 -0.0502464 14.3636
1 8.74409 0.235571 13.654
1 10.2643 -0.309869 13.5616
1 11.0238 1.07564 13.2557
1 11.1174 -0.0802814 13.4143
1 11.6942 -1.50813 13.5571
1 10.8229 -1.66695 12.2405
1 11.0714 -0.295188 12.8763
1 10.5753 -1.00495 11.9956
1 11.7481 -0.452996 11.3529
1 13.0246 0.204853 10.6042
1 13.1501 0.685528 9.00583
1 13.0636 -0.555712 9.97241
1 12.2751 0.473075 9.63102
1 11.5286 1.8457 8.84192
1 10.2983 2.93878 9.17099
1 10.1991 1.71132 9.2922
1 10.7778 3.17375 9.03137
1 11.5771 3.22159 7.67739
1 10.951 4.67196 8.24536
1 10.3894 4.02955 7.40652
1 9.17732 3.58718 7.4076
1 8.07436 4.59594 8.16334
1 7.88306 5.70318 7.02212
1 7.20691 6.8594 6.75125
1 8.60359 7.31608 7.24684
1 8.1593 9.06387 7.9472
100
Atoms. Timestep: 1500
1 12.1246 -10.6308 8.77339
1 12.6603 -10.1182 9.78872
1 12.7933 -10.9176 8.4627
1 14.1892 -10.2738 8.71276
1 15.5139 -9.40595 8.62078
1 16.4253 -10.4149 7.85547
1 16.9826 -8.9975 7.67004
1 16.0681 -8.5368 8.55037
1 16.0041 -7.66862 10.0219
1 15.7397 -7.47378 8.5246
1 15.7029 -7.88679 7.17658
1 14.4619 -8.44499 7.72256
1 15.6909 -7.31393 7.74099
1 15.2297 -6.23214 7.53114
1 13.8516 -5.93452 8.11525
1 12.9923 -5.12905 7.74397
1 11.9549 -4.25463 6.9689
1 11.4386 -5.44688 5.69582
1 10.1512 -5.5419 5.00522
1 10.3045 -4.20472 4.22972
1 8.78359 -3.59287 4.43018
1 8.33326 -2.73149 3.10601
1 7.64747 -2.94351 1.85275
1 6.39337 -2.67024 2.53611
1 6.64786 -1.28556 2.78304
1 6.84582 0.0784337 3.13771
1 6.80012 -1.19745 4.10388
1 7.07735 -1.29768 5.54454
1 7.38269 -2.76379 5.29959
1 8.46925 -3.93665 5.3555
1 8.60861 -5.58454 4.98842
1 8.13355 -4.41163 4.77199
1 7.28765 -5.22898 4.12781
1 8.29315 -5.71015 3.19257
1 8.96351 -6.91328 2.64404
1 8.53797 -5.37806 2.82688
1 7.27882 -5.40678 2.88091
1 7.30413 -4.34333 1.88144
1 5.94309 -5.26485 1.88729
1 5.23713 -6.08924 2.7653
1 5.15229 -6.38768 4.27533
1 3.75926 -6.4472 5.34091
1 4.21714 -7.44925 4.31319
1 4.73226 -6.95666 5.73256
1 5.6608 -6.47392 6.75881
1 6.42659 -5.08637 6.35917
1 6.97347 -6.1365 7.38448
1 8.03884 -7.71191 7.55252
1 7.40025 -6.46907 8.15542
1 6.45116 -7.64501 8.22065
1 5.57944 -6.15601 8.93658
1 5.9812 -5.21683 9.86323
1 6.85416 -5.60801 8.93048
1 8.08915 -5.1475 8.51713
1 7.60186 -4.33916 10.0206
1 8.91454 -3.76632 10.9958
1 9.52646 -2.5635 11.6436
1 9.14848 -3.89799 12.1896
1 9.53267 -2.82223 11.2191
1 9.82925 -1.55693 11.3896
1 10.1626 -2.52996 10.1584
1 8.54033 -3.17642 10.0974
1 9.40335 -2.28117 9.63189
1 9.38291 -1.52068 8.52788
1 8.5621 -1.73347 9.35129
1 9.88261 -2.01855 8.9689
1 9.41188 -1.24869 10.2017
1 8.67344 -0.31851 11.1739
1 9.53111 0.611373 11.8857
1 9.0753 -0.649635 11.5354
1 8.91214 -0.458553 13.0465
1 7.38626 -0.142251 13.5584
1 8.74901 0.0877521 12.4259
1 8.39688 -0.519775 13.6833
1 9.01471 0.811771 13.4837
1 9.03401 1.47956 14.7907
1 9.79457 0.356821 14.0979
1 9.98522 -0.967996 13.5398
1 10.9399 -1.36046 14.5598
1 11.762 -1.48636 13.257
1 10.1628 -1.35576 13.5708
1 10.9153 -0.571682 12.4958
1 11.7653 -0.567645 11.0625
1 10.6258 -0.0228103 11.3827
1 11.0482 1.5119 11.431
1 11.1948 1.03106 10.006
1 12.1267 2.44631 9.96339
1 10.5592 2.14303 9.28338
1 9.66859 1.12197 9.02422
1 11.2212 1.97698 8.77728
1 11.3172 1.82503 7.23905
1 10.5499 3.04256 8.01383
1 9.7513 3.40481 9.03669
1 8.21155 4.15959 8.41258
1 8.12793 5.59154 8.1244
1 9.33455 5.78102 8.79884
1 7.87561 5.73633 8.22874
1 6.62395 5.29533 7.73752
1 5.32006 4.51597 7.88947
1 4.97446 5.06624 9.11438
100
Atoms. Timestep: 1750
1 14.0537 -9.34554 9.8413
1 14.05 -10.8207 10.7035
1 15.2554 -11.6636 10.8285
1 14.885 -10.232 10.1482
1 15.7851 -10.5822 8.98281
1 16.314 -10.6202 10.1726
1 16.3626 -9.22473 9.70082
1 15.9837 -9.25568 8.25288
1 17.0675 -8.33163 8.1008
1 15.4597 -8.43237 7.22951
1 16.0551 -7.86635 8.27908
1 15.6475 -7.64354 6.86076
1 14.2219 -7.80348 6.23074
1 13.3718 -6.73924 5.66249
1 13.6938 -7.52111 4.56243
1 12.9114 -6.18083 5.20447
1 11.2803 -5.24192 5.51305
1 11.3761 -3.91657 4.68609
1 10.7972 -2.94788 4.91566
1 11.2568 -2.46433 3.65061
1 9.94213 -1.50966 3.6312
1 9.52965 -2.48271 2.49985
1 9.43332 -2.262 1.24286
1 8.63346 -1.25364 0.89592
1 8.43432 -0.449973 2.3708
1 7.44296 -0.897041 3.07613
1 7.99948 -1.98088 3.59829
1 7.73856 -3.37312 3.62218
1 7.97773 -2.12226 2.87422
1 7.21719 -3.40085 2.84408
1 7.12367 -4.47671 1.96303
1 8.2426 -4.41671 3.12617
1 7.50413 -5.24183 3.40415
1 7.25549 -5.55891 4.72996
1 6.10025 -6.34063 4.61211
1 6.42238 -7.45585 3.79711
1 5.64653 -6.09395 3.74402
1 4.25782 -6.82101 3.93821
1 5.72943 -6.44857 3.52908
1 6.04177 -4.8567 3.75424
1 5.31205 -4.61179 2.29262
1 5.02631 -4.10362 3.79017
1 4.61909 -4.54557 4.96688
1 5.18217 -6.00159 4.82952
1 5.32885 -7.67262 4.57649
1 6.05161 -7.15314 5.86808
1 5.90316 -7.39859 7.37855
1 7.13859 -7.66131 8.2158
1 7.44966 -7.07587 9.75164
1 8.91241 -6.4967 10.2581
1 8.95875 -7.75508 10.9745
1 10.0365 -7.5776 10.1761
1 8.77446 -6.60474 9.89208
1 8.37282 -5.73411 10.893
1 7.39953 -4.54209 10.4126
1 7.90094 -3.01341 10.8772
1 9.3981 -2.90657 11.708
1 8.02642 -2.93417 12.6565
1 8.81266 -1.40771 12.4546
1 9.89495 -2.10111 11.5628
1 9.86301 -2.75916 10.3047
1 11.0468 -3.16824 10.2156
1 11.6612 -1.71048 9.6177
1 11.3769 -3.07488 10.0883
1 10.9519 -1.87797 11.0465
1 9.28812 -1.41236 10.9008
1 9.18101 -0.111948 11.356
1 8.05635 0.650271 11.8649
1 8.17942 -0.447804 10.9395
1 7.70844 -1.52054 10.1433
1 7.62448 -0.61384 11.4115
1 7.67094 -0.773881 9.83278
1 7.23215 -0.0842661 11.1307
1 8.39438 -0.23865 12.3317
1 9.05828 0.990678 12.1424
1 8.96261 1.08521 13.6694
1 10.1306 -0.0332112 13.9537
1 9.07868 0.140943 14.8772
1 9.7981 -0.511254 15.7227
1 11.0596 -0.323159 15.0566
1 10.8962 -0.603305 13.3789
1 9.54592 -0.239833 12.8462
1 10.0179 1.1628 13.2078
1 10.393 1.69986 11.8297
1 10.0947 3.08951 13.0138
1 9.86988 2.77481 11.498
1 10.8552 2.13307 10.9257
1 10.2261 3.40347 9.97041
1 9.62454 2.49807 8.51114
1 10.8299 2.4617 8.33539
1 11.557 3.95195 8.01184
1 10.3575 3.24047 8.7826
1 9.61755 4.53243 8.00394
1 8.7362 4.51784 9.25755
1 7.98073 5.62296 8.30086
1 7.1435 4.2672 8.63056
1 6.28575 3.26823 8.23833
1 5.28399 2.93433 9.356
1 4.90491 1.65101 8.26417
1 4.54784 0.73167 7.10986
100
Atoms. Timestep: 2000
1 15.1367 -10.5375 11.2603
1 14.176 -9.32764 11.7417
1 15.3219 -9.62774 10.9332
1 16.4023 -9.46921 9.92137
1 15.279 -8.69474 9.35098
1 16.6267 -8.65605 8.46511
1 15.4061 -9.19071 7.81616
1 14.0723 -8.45844 8.07179
1 14.6294 -8.63626 6.90621
1 14.5489 -8.8629 5.21678
1 14.3538 -7.60035 5.75684
1 14.3735 -8.60943 6.63309
1 13.8771 -7.8629 5.39555
1 14.438 -6.67223 5.18471
1 14.6388 -4.94246 5.03352
1 13.9794 -4.56583 3.69165
1 13.214 -3.88385 2.50314
1 12.7795 -5.00464 2.9335
1 11.7303 -3.91217 3.05434
1 11.2091 -2.94036 1.92643
1 10.2481 -2.7604 2.85471
1 11.3882 -2.00781 2.30532
1 11.1227 -2.71825 3.87101
1 9.90228 -2.89511 3.12413
1 10.4044 -3.48222 1.67884
1 9.04132 -3.78385 2.32699
1 9.59214 -3.64893 1.08813
1 8.83764 -2.85894 2.19264
1 8.59103 -1.74565 3.56346
1 7.00113 -2.52213 3.28874
1 7.53723 -3.87203 4.06373
1 7.86302 -5.05957 3.14201
1 6.92175 -6.00553 3.54212
1 7.21778 -6.47846 2.09558
1 6.32691 -7.62179 2.56597
1 6.15219 -7.0565 3.85899
1 6.10054 -5.54571 4.18326
1 5.96783 -3.90977 4.23028
1 6.66036 -4.98188 5.08729
1 5.39513 -4.16699 5.57244
1 6.38589 -5.38001 5.19977
1 4.96107 -5.10324 5.93538
1 5.92594 -5.41753 7.00925
1 5.05311 -6.59371 7.03765
1 5.86063 -6.10976 8.11834
1 4.70932 -5.99261 9.24961
1 5.09495 -7.31198 9.62128
1 6.14476 -6.30065 9.43092
1 7.64357 -6.27026 10.0188
1 8.736 -6.59411 9.57992
1 7.37884 -6.74448 9.13831
1 7.0193 -6.68531 10.7793
1 8.81256 -6.80662 10.9227
1 9.10245 -6.36612 12.4689
1 9.85718 -5.12307 11.9567
1 9.42325 -4.57694 10.8634
1 8.70575 -3.31161 10.7293
1 7.4964 -3.58421 10.1055
1 7.56889 -3.01903 11.5246
1 8.80338 -3.70877 10.6123
1 9.8054 -2.76849 10.3742
1 9.26301 -2.41975 11.7802
1 10.077 -1.06744 12.0131
1 10.67 -2.30188 11.8579
1 10.1875 -0.957127 11.7819
1 8.91345 -1.41835 11.8198
1 9.57452 -0.119851 11.3784
1 9.04004 -0.865455 10.2883
1 8.25543 0.488006 10.4746
1 7.80108 1.91231 10.4226
1 9.00678 0.801256 10.534
1 8.23497 -0.338568 11.1316
1 8.07406 -1.91333 10.913
1 6.86044 -0.834618 11.4321
1 6.95881 0.150145 12.5868
1 7.85522 -1.08454 13.2188
1 9.19631 -0.184376 12.7025
1 9.20955 0.297544 14.084
1 9.56447 -0.296851 12.3995
1 9.83829 -0.929002 13.5107
1 10.3221 0.336018 12.7397
1 9.7435 1.70685 12.295
1 8.42449 0.825481 11.986
1 8.67046 2.25675 12.4909
1 8.79405 3.17096 11.2398
1 9.90266 4.44107 11.6528
1 10.1129 3.42117 10.3649
1 11.6289 3.81778 10.774
1 10.174 4.89433 10.4097
1 9.82082 4.50873 9.12395
1 8.3599 4.46939 9.0868
1 9.62236 4.734 9.39279
1 10.1017 3.56301 9.01956
1 9.61083 2.20244 8.63045
1 8.31854 1.57321 8.24778
1 6.99203 1.0097 7.3217
1 6.21495 0.978342 8.43491
1 6.52743 0.724465 7.05142
1 6.54804 1.13442 8.64135
1 6.66806 1.38861 10.0524
100
Atoms. Timestep: 2250
1 17.1383 -7.40581 9.72661
1 17.2552 -8.76442 10.2528
1 16.2005 -7.77529 11.107
1 15.0753 -7.86866 10.5518
1 14.3224 -7.28814 9.4167
1 13.4552 -7.65017 8.33173
1 13.5686 -8.43364 6.76904
1 15.0302 -8.37241 6.31125
1 13.8916 -7.30797 6.39925
1 13.3476 -8.08299 4.90985
1 14.6239 -8.30613 5.65069
1 14.6733 -6.7366 5.28629
1 14.3766 -5.57486 4.92416
1 13.2582 -4.86308 5.49078
1 13.9338 -5.09483 4.18046
1 13.6773 -4.03448 3.07197
1 14.3138 -5.48236 2.84405
1 14.486 -5.1247 1.7641
1 13.993 -3.45729 1.54493
1 14.2795 -4.97862 0.532373
1 12.7501 -4.74883 0.906405
1 11.4597 -5.56841 0.946899
1 10.618 -5.31544 2.23589
1 9.66294 -5.52714 1.01456
1 10.5475 -4.72447 1.65812
1 9.59903 -4.22865 1.10127
1 9.81053 -5.58378 1.23977
1 8.31521 -5.0966 1.47536
1 8.51231 -4.99522 3.19254
1 8.46195 -3.65837 2.96342
1 8.80797 -3.98843 4.28025
1 7.53018 -3.29736 3.88246
1 6.3273 -3.71349 3.1482
1 7.17185 -5.0927 3.25407
1 7.41209 -3.77868 3.67481
1 6.01033 -3.68715 4.23353
1 7.41744 -4.28817 4.27279
1 5.87503 -4.39436 4.44249
1 5.88684 -6.02502 5.09024
1 5.83863 -5.17279 6.47923
1 6.47614 -5.69299 7.80149
1 5.71803 -6.63446 8.50915
1 5.34538 -7.71094 9.65653
1 4.93848 -7.0143 11.165
1 5.02537 -7.34892 9.72141
1 4.69222 -5.82453 10.235
1 5.85226 -5.03332 10.1035
1 6.90145 -5.04994 11.1489
1 6.38177 -6.05248 12.1652
1 7.76463 -6.19607 11.8843
1 7.44029 -5.80576 10.6917
1 7.91042 -7.29544 11.0335
1 8.71958 -6.27441 11.4096
1 9.21302 -4.86961 10.6517
1 7.76866 -4.8103 10.7397
1 8.29572 -4.44883 12.2313
1 7.66001 -4.13594 10.9248
1 9.09329 -3.51284 10.7396
1 8.25469 -2.52931 11.5544
1 7.90827 -3.72382 10.7625
1 8.40092 -2.29371 11.0994
1 6.74467 -2.38872 11.1477
1 7.41477 -2.66283 12.5596
1 7.83173 -1.66431 11.1126
1 8.86042 -0.847713 12.0489
1 7.80463 -1.41668 10.981
1 8.48306 -1.13809 12.4206
1 8.44343 -0.304484 11.1135
1 8.68821 0.484451 9.90434
1 8.47206 0.884038 11.2934
1 7.97793 0.21179 9.75934
1 9.37521 0.103519 9.97461
1 8.09878 -0.685834 9.71764
1 7.45673 0.0655454 10.9166
1 7.51734 -1.02117 12.0091
1 8.03581 -1.51259 13.5338
1 8.0537 0.212854 13.906
1 8.93769 0.527693 12.8439
1 10.1526 0.272856 11.9999
1 10.0167 -1.05444 11.388
1 9.49618 0.0571107 12.0829
1 9.43203 1.46575 12.3381
1 8.06299 1.84165 11.528
1 8.50686 2.72498 10.241
1 9.24339 2.44256 8.72929
1 8.43231 2.78009 10.0962
1 7.58667 3.00704 11.3856
1 8.23302 3.94071 10.6187
1 8.54088 5.43952 10.3982
1 9.64111 5.18234 11.1678
1 10.7511 4.69144 9.77338
1 9.51829 3.78212 10.0026
1 10.8159 3.12247 10.0999
1 11.1207 1.76924 10.3368
1 10.7435 0.515661 10.171
1 10.145 -0.0661747 9.12238
1 8.90494 0.868109 8.53371
1 7.88379 1.85146 7.8353
1 7.32879 0.630089 7.27077
1 6.66299 -0.637199 7.24499
100
Atoms. Timestep: 2500
1 17.0917 -6.11591 10.3551
1 16.3323 -5.97687 8.97986
1 16.6561 -7.17534 8.16812
1 15.2237 -6.66009 7.99896
1 16.246 -7.36888 7.70202
1 14.85 -7.51624 8.14369
1 13.4728 -8.38085 8.01576
1 14.3231 -9.07537 9.07257
1 13.6237 -8.15501 7.98645
1 13.9992 -6.88523 7.204
1 12.8862 -6.67198 5.98847
1 12.3864 -5.22908 5.98207
1 13.2315 -4.4592 4.87688
1 14.2478 -5.00263 4.41176
1 14.6722 -4.61346 2.82517
1 15.3635 -3.4036 3.15227
1 14.4251 -4.60575 2.67968
1 13.7495 -5.09859 1.53784
1 12.8432 -5.90879 0.352971
1 12.0599 -7.01242 0.358002
1 11.3697 -5.62446 1.32505
1 12.0926 -5.99385 0.153113
1 11.0426 -6.32963 -0.680287
1 9.65617 -6.69792 -0.49144
1 10.315 -7.66367 0.867721
1 9.20906 -6.53687 0.788689
1 9.27594 -6.29398 2.29652
1 7.75936 -6.92217 2.26648
1 7.04601 -6.13212 1.35545
1 8.35844 -5.58382 1.94133
1 6.94444 -5.3502 2.24229
1 7.85643 -4.23353 3.18131
1 8.26842 -4.11761 4.66316
1 7.9801 -2.91017 5.81732
1 6.52638 -2.98171 5.81989
1 5.06736 -2.96827 4.96996
1 6.60449 -3.38515 5.79582
1 6.89244 -4.69983 6.29965
1 6.27098 -6.10385 5.89055
1 6.1019 -6.51021 7.48147
1 5.20966 -7.33793 7.32575
1 4.75659 -8.01323 8.39141
1 5.21959 -6.58236 9.11467
1 6.38233 -5.86491 9.66477
1 6.78552 -4.92559 10.6831
1 6.84721 -3.47544 11.3302
1 6.55149 -4.71825 12.2996
1 7.39372 -5.4171 13.6895
1 8.58842 -5.92689 13.0828
1 7.56892 -5.32524 12.1159
1 6.17894 -5.97007 11.2956
1 6.5975 -7.27458 11.6704
1 7.09238 -5.84861 10.4718
1 8.32891 -4.64125 10.9494
1 9.17573 -3.56062 11.2896
1 7.92623 -3.34446 12.0436
1 8.10254 -2.10175 13.0543
1 8.23413 -3.56934 12.7146
1 7.63136 -2.51197 11.8154
1 7.0987 -2.7253 10.6055
1 6.22821 -1.96532 9.7348
1 7.89925 -1.84013 9.85503
1 8.12601 -2.61077 10.8737
1 7.47345 -1.77063 10.0086
1 8.55225 -0.378851 9.81492
1 7.41657 -0.376259 10.9273
1 8.40871 -0.903332 10.5677
1 7.02999 -0.735922 9.9435
1 8.29325 -0.558509 10.8617
1 9.45195 -1.53892 10.5454
1 9.21462 -0.440066 11.3528
1 9.03709 0.783019 10.5769
1 7.77086 1.38968 10.1709
1 6.35467 1.15499 10.843
1 5.61661 0.245069 11.8835
1 6.67022 -0.728288 11.8878
1 7.95985 -1.04485 12.6367
1 8.47838 0.0100566 12.5436
1 9.08767 1.06703 12.1427
1 7.96921 0.875808 12.566
1 9.33514 1.46206 13.2892
1 8.95976 2.84544 12.4581
1 8.43402 1.87071 11.4591
1 7.51532 2.67752 10.3321
1 7.78105 3.12377 9.13102
1 9.09549 2.13962 9.15776
1 9.83889 2.68263 8.2483
1 10.1115 2.31435 9.67573
1 11.2805 2.60527 8.99722
1 10.5972 3.25345 10.0722
1 11.8594 4.3435 10.5601
1 11.9123 2.95114 10.7737
1 12.7328 2.17132 11.4128
1 12.2472 1.21045 10.4383
1 11.1302 1.11645 9.59072
1 9.9752 1.67189 8.7842
1 8.86593 1.06732 7.93667
1 9.23777 -0.213139 8.85092
1 8.72942 -1.67498 9.29615
1 7.42249 -1.03395 8.80979
100
Atoms. Timestep: 2750
1 14.1626 -4.10401 8.56198
1 15.5501 -4.81423 8.33512
1 14.8435 -5.5546 7.23202
1 15.0427 -6.65881 6.12298
1 15.3367 -5.92943 7.40626
1 16.1149 -6.21942 8.50544
1 16.614 -7.36714 7.69837
1 15.3721 -6.3874 7.97038
1 14.2521 -6.49948 8.88597
1 13.668 -6.0209 7.60189
1 13.8594 -7.06957 6.58293
1 14.3686 -5.55586 5.84764
1 14.2012 -6.06502 4.37664
1 13.2225 -6.25505 3.31254
1 12.1149 -5.27154 2.82391
1 13.3291 -6.01603 3.27543