100
Atoms. Timestep: 0
1 11.4428 -5.56904 11.0272
1 10.77 -5.60318 10.2801
1 11.3949 -6.24517 9.87938
1 10.5617 -6.56119 9.69909
1 10.652 -7.01609 8.84847
1 9.94764 -6.36978 8.88163
1 9.19395 -6.84006 8.41075
1 9.12577 -5.78109 8.4093
1 9.81594 -6.19066 7.83768
1 10.5025 -5.66373 8.23167
1 11.1023 -5.50162 8.94124
1 10.7556 -4.844 9.47521
1 10.037 -5.00189 8.87943
1 9.2134 -4.56114 8.66972
1 8.76913 -4.70138 9.51585
1 8.70131 -3.78189 9.53469
1 7.94482 -3.37236 9.32601
1 7.06029 -3.14327 8.98686
1 7.06825 -2.88853 8.03647
1 7.56013 -2.85184 7.19763
1 8.30288 -3.1275 6.63985
1 7.78219 -2.46031 6.21796
1 8.23845 -2.06691 6.96524
1 7.72553 -1.84898 7.77661
1 7.60156 -2.24968 8.70194
1 8.20483 -2.88314 8.28254
1 8.84741 -3.49177 7.76775
1 8.38267 -4.06072 7.22877
1 8.09863 -4.52385 8.02738
1 7.57118 -3.76553 7.76972
1 6.85422 -4.07267 8.34126
1 6.81194 -4.80508 7.74479
1 7.31531 -5.39422 8.32189
1 7.10252 -6.16627 7.81682
1 6.42166 -6.85222 7.77727
1 6.68416 -7.18698 8.60948
1 6.7695 -7.96795 9.14473
1 7.472 -7.93767 8.44244
1 8.04471 -7.92013 7.70634
1 7.34274 -8.44262 7.3268
1 6.74683 -7.67781 7.18469
1 6.43128 -8.06699 6.3831
1 6.98069 -7.52678 5.80115
1 7.68479 -8.18637 5.86694
1 7.88993 -7.77444 6.70077
1 7.46907 -6.90713 6.97077
1 6.881 -6.60472 6.20337
1 6.11311 -6.47673 6.78356
1 5.36724 -6.51206 7.35108
1 5.08208 -6.2467 8.2419
1 5.15133 -6.26538 9.15813
1 5.62544 -5.45904 9.36353
1 6.52601 -5.14877 9.17259
1 6.75071 -6.09482 9.02188
1 7.49263 -5.91571 9.57596
1 8.15811 -5.604 9.00934
1 8.53868 -6.44597 9.24226
1 9.33858 -5.97619 9.50176
1 9.83081 -5.94523 10.3053
1 9.67493 -5.03464 9.93609
1 9.57724 -4.27111 10.4275
1 9.85567 -5.07828 10.8361
1 10.7921 -4.68957 10.9395
1 10.7271 -4.13683 10.1368
1 10.0675 -3.44665 10.1184
1 9.75601 -3.815 9.20873
1 9.12388 -3.25812 8.75893
1 9.776 -3.57334 8.08692
1 10.555 -3.5418 7.50384
1 11.3297 -3.72068 8.02186
1 12.2428 -3.52395 8.27775
1 12.7017 -2.70203 8.25596
1 12.4312 -1.902 7.77978
1 12.7727 -1.09492 8.20093
1 13.1102 -1.29898 7.38328
1 13.8729 -1.75205 7.69887
1 13.773 -0.737898 7.9661
1 13.1586 0.0603943 8.06724
1 13.2495 0.0373323 9.02809
1 12.9459 0.890064 8.59758
1 12.9667 1.61463 7.93646
1 12.2407 1.23857 7.45588
1 12.8632 1.28038 6.64874
1 13.7348 1.09339 6.15251
1 13.8707 1.98947 5.84421
1 13.0052 2.2137 5.62619
1 12.3616 2.1959 6.29372
1 11.5784 2.78393 6.03825
1 12.1706 3.28917 6.55331
1 11.3319 3.17128 6.93426
1 10.9574 3.98306 6.5766
1 11.5022 4.30406 7.34098
1 10.9495 4.99586 7.02293
1 10.7159 5.34453 7.89292
1 9.83296 5.09681 7.51219
1 9.87703 6.00611 7.74935
1 9.87361 6.48773 8.61468
1 9.6915 5.95213 9.36055
1 9.45394 6.83085 9.6906
1 10.3685 6.99488 9.40339
100
Atoms. Timestep: 250
1 14.1471 -7.68156 10.4609
1 14.7828 -9.2237 10.8747
1 13.4945 -8.56302 11.7644
1 14.1927 -8.21474 10.475
1 13.1402 -8.52393 9.25493
1 12.1468 -7.29553 8.76039
1 11.5153 -7.64275 7.95311
1 12.0509 -6.33907 8.20651
1 11.6967 -5.16946 7.78507
1 10.5474 -5.59285 8.17953
1 10.539 -4.17013 7.60769
1 9.38435 -3.55867 7.40099
1 8.38789 -3.63371 6.77512
1 8.13071 -4.28491 6.34601
1 9.34348 -3.78405 7.54624
1 9.20341 -2.65675 7.2575
1 7.92748 -1.36548 7.25222
1 6.85212 -0.568868 6.64318
1 5.93726 0.460741 6.75509
1 6.27002 1.40916 8.1234
1 7.62527 0.865027 7.42036
1 7.69016 0.149736 5.96584
1 8.95577 -0.532242 4.88073
1 8.10644 -1.84364 5.22197
1 9.76335 -2.31392 4.19083
1 8.36297 -3.13569 4.71703
1 7.73883 -2.1099 6.2005
1 5.94193 -1.43188 5.63179
1 6.07979 -2.6127 6.26615
1 5.71194 -3.72058 7.43954
1 6.05019 -3.40833 6.17802
1 6.59292 -3.30274 7.21759
1 5.84428 -4.92512 7.67741
1 6.73611 -6.13684 7.4185
1 7.99752 -6.18357 8.50522
1 6.74647 -6.95532 8.3124
1 6.9457 -8.07645 7.18917
1 6.39237 -9.67711 7.74044
1 6.28836 -10.7507 7.42962
1 6.1722 -11.7862 5.9109
1 6.98098 -10.8459 5.25742
1 7.35923 -9.41947 5.05065
1 7.0507 -8.21833 4.33093
1 6.34598 -9.04729 5.30676
1 4.53517 -9.27242 4.82519
1 5.4572 -8.46728 4.84656
1 5.19923 -9.80312 5.82373
1 3.92523 -8.92935 6.1112
1 4.8731 -9.09164 7.45844
1 3.95698 -7.79278 7.28014
1 4.3626 -6.79867 8.38224
1 3.76271 -6.99351 9.51342
1 3.78752 -7.52236 11.065
1 3.88968 -8.60812 12.0511
1 4.44324 -8.36688 13.6193
1 5.22046 -6.87191 14.3239
1 6.74398 -5.60303 14.0534
1 7.52861 -5.52316 15.4416
1 8.27705 -6.01562 14.3581
1 9.04955 -4.76473 15.448
1 9.9723 -4.70497 13.9334
1 9.18444 -3.67914 13.12
1 10.6243 -2.98209 13.5279
1 10.7402 -2.06399 12.0957
1 11.3044 -3.434 11.2647
1 10.587 -2.91403 10.3828
1 10.882 -1.56485 9.67119
1 11.8296 -0.413494 9.37296
1 12.1008 -1.97028 8.59814
1 12.3925 -1.68209 6.67622
1 12.0966 -2.95355 7.69443
1 13.494 -4.40421 7.55087
1 14.9195 -4.61626 7.35882
1 15.4789 -3.51671 8.02426
1 14.3359 -2.94044 7.75496
1 14.3262 -1.48143 8.08958
1 14.8446 -0.877591 9.53754
1 14.1438 -2.2695 8.85031
1 13.3039 -0.476026 9.13179
1 14.7927 -0.0888215 9.46429
1 14.4766 1.12557 8.22094
1 14.4483 2.40894 8.70905
1 14.1493 3.72364 7.69198
1 12.6683 3.98141 7.38415
1 13.346 2.18036 6.79482
1 13.703 3.44199 6.13935
1 13.1533 4.21952 4.42137
1 13.3988 3.26132 5.69096
1 11.9343 3.78 6.55372
1 11.9542 5.28121 5.56176
1 10.5058 5.22983 6.88036
1 10.0626 3.97991 7.00518
1 9.29952 4.11845 8.08214
1 10.3364 4.71679 6.75607
1 9.28337 4.33204 7.65948
1 9.55215 5.31672 8.75074
1 9.48284 6.85079 8.94266
1 10.2214 5.67326 8.40348
1 10.0067 7.35504 9.15607
1 10.5735 6.02913 8.00658
100
Atoms. Timestep: 500
1 14.4744 -8.41209 7.85548
1 14.6027 -7.22814 9.39834
1 14.6892 -7.69221 10.7419
1 14.4567 -8.23945 9.53976
1 15.1476 -6.71511 9.11615
1 15.0897 -4.92582 9.62181
1 13.7957 -5.54661 9.54697
1 12.8828 -5.73008 8.19116
1 13.205 -7.13985 8.32776
1 12.1097 -5.81791 8.42645
1 10.4986 -6.21823 7.72014
1 11.5912 -4.88184 7.05689
1 11.2621 -3.56871 7.13061
1 9.51469 -3.50209 7.68573
1 8.39521 -3.89408 6.76884
1 9.06649 -4.56123 5.40001
1 8.69753 -3.47212 4.74848
1 8.956 -2.2785 4.61679
1 9.32644 -1.14077 4.07028
1 9.15643 -0.224485 5.34218
1 9.16104 1.25793 4.92062
1 8.64386 1.40684 3.258
1 7.89892 2.1783 2.12325
1 6.49146 1.79462 2.8723
1 6.13584 0.599461 3.4531
1 6.57263 0.872482 5.09807
1 6.91755 -0.471483 5.9025
1 5.45103 -1.4698 5.36353
1 6.50884 -0.531339 5.3988
1 6.29173 -1.65711 6.34064
1 6.94451 -2.44893 6.72512
1 7.30882 -4.1726 7.29458
1 6.79659 -4.35693 5.76166
1 7.04314 -5.30828 7.16241
1 5.8085 -6.42518 7.67044
1 5.92777 -7.62918 6.52012
1 6.09306 -7.53547 4.84913
1 7.35714 -7.09558 5.42271
1 6.99424 -8.16045 4.55989
1 5.89356 -9.16889 5.11332
1 4.59413 -8.9248 5.39287
1 3.41248 -9.64973 6.47572
1 2.44748 -11.1553 6.39444
1 3.33084 -9.8037 6.60973
1 2.94705 -11.0832 7.11247
1 3.6667 -11.8896 8.49935
1 3.47778 -10.4598 9.53184
1 2.78463 -10.0364 11.1385
1 4.12751 -9.8858 11.8588
1 5.90031 -9.91712 11.1963
1 4.64868 -9.26878 11.3386
1 5.87787 -8.57538 11.1438
1 6.76092 -7.93727 10.0599
1 5.91099 -8.41354 11.1002
1 6.39826 -8.26653 12.4906
1 5.54336 -7.41326 11.6514
1 5.59342 -7.27703 13.2725
1 6.63683 -6.60397 12.6547
1 6.58164 -5.461 13.6502
1 5.83488 -5.40913 12.2994
1 5.47356 -4.67504 13.7951
1 6.90992 -4.9863 13.3448
1 7.70786 -3.9012 12.0259
1 8.81635 -3.71337 11.0967
1 9.72782 -5.02212 10.1178
1 10.7211 -3.91797 9.50741
1 11.9321 -4.65911 9.9854
1 11.274 -4.13749 11.4228
1 11.732 -2.60293 11.8146
1 12.6376 -3.08061 10.7222
1 12.8907 -2.6451 9.29917
1 13.8255 -4.17536 9.8465
1 13.1181 -2.88663 9.72686
1 13.9483 -1.76223 10.1371
1 14.5288 -1.22847 8.32916
1 16.268 -2.26419 8.9997
1 17.2423 -2.65043 8.0758
1 17.3102 -1.1716 9.28548
1 16.1304 -0.516127 8.08408
1 15.3708 0.340264 9.44877
1 15.4994 1.56819 9.28467
1 15.4082 3.26216 9.52974
1 15.1703 3.7481 8.17104
1 14.4874 5.17374 8.37999
1 13.2846 5.97942 7.73135
1 12.0659 5.68701 6.55303
1 11.3997 4.52274 6.61962
1 10.9282 3.4094 6.1973
1 10.7077 3.21047 8.26809
1 10.863 3.60423 6.67923
1 9.68644 3.00782 6.8445
1 9.15291 4.55478 7.56333
1 9.12014 3.85815 6.71917
1 8.16641 5.38422 6.24004
1 8.83173 5.75039 6.9346
1 10.5172 5.61383 7.91057
1 11.7668 5.54698 9.08723
1 11.6343 6.91092 8.95369
1 10.4605 6.11255 8.13724
1 11.7415 5.4227 8.53699
100
Atoms. Timestep: 750
1 15.6097 -6.60785 9.83193
1 14.4014 -7.02176 9.17591
1 13.8852 -6.96974 10.5798
1 13.3989 -6.14946 9.31312
1 13.648 -6.45348 7.59979
1 14.4382 -5.24585 7.74146
1 13.1282 -4.513 8.26996
1 12.8783 -5.43709 7.0456
1 12.5916 -4.46464 8.17953
1 11.8042 -4.49065 7.02591
1 12.1789 -5.50431 6.3564
1 11.236 -6.50893 6.59898
1 12.2336 -5.78427 5.49475
1 11.3171 -4.89354 5.5292
1 11.8646 -3.61281 4.31199
1 12.6632 -2.80806 3.36205
1 11.7608 -1.06714 3.36421
1 10.8245 -2.05239 2.55614
1 10.3543 -2.50577 3.81367
1 8.9015 -3.01579 3.19499
1 7.74679 -2.92064 4.2039
1 6.53652 -2.32502 3.82711
1 7.69677 -1.41652 3.84918
1 8.79315 -0.711953 4.63981
1 9.01102 0.433494 5.30009
1 7.42641 0.785863 5.24539
1 7.1691 0.496654 6.55769
1 6.26865 -0.77961 5.26092
1 6.15746 -0.393025 6.80534
1 7.1899 -0.89296 5.97661
1 5.64662 -1.26959 5.29455
1 5.68706 -2.65933 5.6029
1 6.18872 -4.17417 5.02079
1 4.97316 -4.84244 4.1661
1 4.92949 -6.19304 4.80282
1 4.13342 -7.47638 5.63786
1 3.758 -6.15037 5.85956
1 4.63211 -7.02645 6.51899
1 3.6722 -7.53926 7.23549
1 3.2143 -8.84003 7.77383
1 2.23858 -9.51318 8.77594
1 3.05592 -10.0647 9.88744
1 2.68197 -10.4564 11.0641
1 2.51576 -8.89356 10.5657
1 3.56838 -9.76675 9.95896
1 3.67265 -9.87481 8.39739
1 3.74638 -11.0028 9.28363
1 4.83162 -10.69 10.1943
1 4.51192 -10.7764 11.9104
1 5.0505 -9.55619 10.9106
1 4.51063 -9.40192 12.7643
1 4.5415 -8.27506 11.7802
1 5.71025 -9.23104 11.0131
1 6.26136 -9.72592 12.3611
1 7.40775 -8.76487 11.922
1 7.34061 -7.1995 12.0301
1 7.12621 -7.35919 10.7939
1 6.5799 -6.62016 9.54588
1 6.8269 -5.43664 10.6624
1 8.17885 -5.52636 9.73454
1 9.36928 -5.9062 9.17893
1 10.0198 -5.67651 7.81791
1 8.66961 -5.17903 8.51251
1 8.7829 -4.72648 10.1394
1 9.33775 -5.27554 11.4055
1 10.0879 -5.8226 12.8449
1 10.9297 -4.71723 12.375
1 11.5063 -4.22267 13.2672
1 12.8029 -3.17333 12.5775
1 13.4896 -2.06212 12.5062
1 13.4977 -0.505246 13.3914
1 12.939 -0.544651 11.7844
1 14.2278 -0.175809 12.7975
1 15.0992 0.173617 11.5842
1 14.6385 -0.391945 10.1265
1 14.3505 0.517998 9.20671
1 15.7602 1.34411 10.1432
1 16.561 1.66837 8.61743
1 15.0643 1.28791 7.85221
1 14.0625 0.927058 6.82691
1 13.2257 2.09468 7.36984
1 14.1028 2.57782 8.44196
1 12.8209 2.61699 9.41762
1 11.5287 2.15556 8.93348
1 12.5971 0.724269 9.72492
1 11.0815 0.335644 9.9165
1 11.2077 1.58825 8.94569
1 11.3555 1.05757 7.66368
1 11.5735 2.62353 7.41916
1 10.9159 3.36108 5.90721
1 10.1244 3.4123 7.18341
1 10.7352 4.49718 6.38717
1 9.69889 4.16928 7.01924
1 10.8926 4.76637 5.98897
1 10.9105 6.13567 6.94259
1 11.8453 6.80767 7.98765
1 11.04 6.77523 6.57645
1 10.8798 6.29906 8.10554
1 9.60955 6.02397 7.40777
1 10.4433 7.30442 7.61933
100
Atoms. Timestep: 1000
1 14.9813 -2.85756 8.43088
1 14.3343 -3.72616 9.61886
1 14.3351 -5.19212 9.03268
1 13.2027 -4.06419 8.36185
1 12.6593 -4.60696 7.44877
1 13.2747 -5.25903 6.17131
1 14.4322 -6.24025 7.03245
1 14.1989 -7.18528 5.56701
1 14.4731 -5.93055 4.59782
1 14.3576 -4.86004 3.667
1 13.3117 -3.57495 4.06929
1 12.9092 -3.47003 5.59772
1 13.171 -3.98131 4.24597
1 12.4056 -4.12186 3.14727
1 12.6786 -2.73941 3.79146
1 11.8687 -3.94786 3.3786
1 10.5911 -3.29468 2.60283
1 9.32005 -4.35567 3.33752
1 8.83962 -5.77133 4.00614
1 10.1053 -5.98171 5.09511
1 9.99864 -4.40666 5.69281
1 8.37456 -4.45476 5.79008
1 8.02004 -3.10516 5.73666
1 8.1703 -3.25398 4.32986
1 8.10033 -1.85595 4.26146
1 7.42427 -0.607344 4.27801
1 7.82674 -1.13865 5.58923
1 7.67309 -2.24871 6.38343
1 6.77872 -2.88453 5.3203
1 5.25873 -2.75378 6.09866
1 5.21392 -3.00998 7.98778
1 4.61749 -4.23713 7.10544
1 3.47232 -3.74267 7.83608
1 4.06343 -4.29416 6.38414
1 4.61009 -5.11844 7.12109
1 3.25903 -5.92981 7.09901
1 1.92749 -5.89557 6.76869
1 0.584866 -6.41007 6.66356
1 1.54646 -6.11608 7.70537
1 1.77086 -6.68564 9.18616
1 2.56737 -6.36192 10.2831
1 1.63232 -6.68384 9.15642
1 2.29267 -7.84823 9.2288
1 1.68429 -9.19312 9.43209
1 2.93172 -9.77484 10.3004
1 3.5548 -10.6544 11.0052
1 3.98308 -10.4118 12.5478
1 4.91217 -9.75157 11.608
1 5.83835 -10.6233 12.7222
1 6.65616 -10.1082 11.5801
1 6.99652 -8.58087 11.6827
1 7.36279 -9.8571 12.0189
1 6.01102 -9.39509 11.5855
1 5.59517 -7.93478 12.3342
1 6.28894 -6.86719 11.4505
1 7.29632 -5.994 10.9467
1 8.4472 -6.95295 10.7233
1 9.86858 -7.01239 10.7714
1 9.16692 -7.04195 9.63302
1 9.6966 -5.97019 10.4225
1 9.68828 -7.34643 9.7974
1 9.65599 -5.83249 10.3802
1 9.82121 -4.02974 10.0572
1 11.2434 -3.0345 9.92167
1 12.2304 -3.56768 10.3325
1 12.8585 -2.81928 9.16442
1 12.4324 -2.1111 10.2402
1 12.5496 -2.31268 11.7922
1 11.9451 -1.28406 11.9831
1 11.8171 -1.77703 10.8037
1 12.864 -0.612473 11.4008
1 13.6649 0.149482 10.1327
1 14.2494 -0.629469 8.97612
1 13.366 -1.29909 10.1015
1 13.2085 0.187147 10.6913
1 13.8048 0.50788 11.846
1 12.4866 0.124607 12.1709
1 13.0652 1.69233 11.4506
1 12.5737 1.88223 9.82626
1 12.1124 1.04284 9.64642
1 11.685 2.44798 9.81305
1 12.754 2.08145 9.34936
1 12.5582 0.516336 9.3764
1 11.6533 -0.389091 8.90049
1 10.0692 -0.346855 9.10051
1 10.472 -0.1532 7.53425
1 10.288 -0.711933 8.9709
1 10.7542 0.207728 8.30841
1 11.9552 0.617687 6.90165
1 13.4932 1.43966 6.68648
1 14.0192 3.17086 6.71949
1 12.8869 3.9606 7.60354
1 11.6131 4.37527 7.70979
1 11.7393 5.82556 7.34329
1 10.2438 5.72945 8.11691
1 9.45749 6.61182 6.82069
1 9.26759 7.40577 5.68036
1 9.99038 7.06542 7.01033
1 9.76288 6.14489 5.80873
1 10.8668 7.12729 5.95291
100
Atoms. Timestep: 1250
1 13.5704 -4.85265 6.69606
1 15.4388 -4.54023 6.73099
1 16.4041 -5.77905 6.35802
1 17.6124 -5.25014 5.75507
1 16.4896 -6.10745 5.42856
1 16.7807 -4.51543 6.11832
1 15.7126 -3.44312 6.01561
1 14.215 -3.06584 5.73152
1 14.6606 -2.37151 4.33829
1 14.6591 -2.70161 2.88838
1 13.2735 -3.76464 2.85649
1 13.0364 -4.41985 3.97951
1 13.1534 -3.9213 2.26065
1 11.5757 -3.68443 2.12234
1 10.3326 -3.6178 3.14746
1 11.8062 -3.6727 3.91136
1 11.9257 -5.35572 3.97054
1 12.6851 -5.48067 5.45444
1 11.0914 -4.93548 5.15601
1 9.959 -4.02793 5.12128
1 9.84081 -5.42748 4.60185
1 8.62034 -5.12181 3.95461
1 9.51146 -3.99503 4.80955
1 8.98019 -5.56388 4.69064
1 7.71697 -5.98468 4.44156
1 6.66148 -5.68592 5.40044
1 7.14062 -4.64952 6.1878
1 6.75487 -3.5851 7.26244
1 7.36102 -4.21406 6.06403
1 5.93897 -4.73731 6.64542
1 5.74449 -3.37625 6.95469
1 5.04581 -2.6794 7.74565
1 4.39827 -1.7089 8.41511
1 3.2264 -2.47746 9.14713
1 2.29695 -3.91657 9.74162
1 1.68843 -5.15774 9.50335
1 0.731893 -4.36291 8.76471
1 2.10938 -4.22512 8.75891
1 1.36256 -5.67186 9.1333
1 1.2693 -6.95023 10.1315
1 0.529643 -6.64206 11.5123
1 1.90273 -6.92344 11.2624
1 2.62599 -7.85912 11.4688
1 4.09887 -7.7157 10.9492
1 4.0554 -6.52558 11.593
1 3.97378 -7.9932 10.9593
1 4.77775 -7.94638 12.3574
1 4.09317 -9.30571 12.042
1 3.73828 -10.4923 12.5233
1 5.15394 -9.85465 12.3438
1 5.92118 -8.33352 12.2678
1 6.4466 -7.60192 11.1903
1 7.66456 -7.90675 10.1815
1 8.74306 -8.60907 11.0988
1 9.63461 -7.38079 10.6543
1 8.24241 -6.5509 10.6555
1 9.51558 -6.38833 10.6318
1 8.74175 -5.08339 11.1408
1 10.3238 -5.84341 11.6705
1 11.0551 -4.94799 10.3334
1 10.3139 -5.8475 11.5381
1 11.2742 -5.47904 10.4513
1 11.6227 -3.78744 10.8986
1 11.885 -4.86523 9.70028
1 11.4605 -3.51915 10.2853
1 12.3274 -4.08681 9.09608
1 10.6744 -3.62921 9.28566
1 11.8666 -2.60482 9.0036
1 13.1442 -3.56608 8.41027
1 13.7576 -2.5678 7.63752
1 13.272 -1.49333 8.74331
1 13.9861 -0.745326 10.2344
1 13.7916 -1.4324 11.3928
1 13.0154 -0.0264265 10.9246
1 11.5903 -0.00317225 11.478
1 10.9596 -1.00437 12.5166
1 9.93143 -0.16245 11.5714
1 9.99588 1.07276 11.2995
1 10.7367 2.11496 12.4974
1 10.3285 0.729376 11.8611
1 10.2934 1.29447 10.5524
1 9.13677 0.624689 9.90271
1 10.4078 0.451131 9.17508
1 11.5498 0.828158 8.73365
1 11.5192 -0.490813 7.61835
1 11.9584 -1.34332 6.17043
1 13.1271 -0.501844 5.56883
1 11.7944 0.429137 6.1121
1 10.2191 1.08658 6.11205
1 10.7216 2.40401 6.33721
1 10.6323 3.47159 7.77645
1 9.1234 3.86526 7.96559
1 10.1978 4.78706 8.6118
1 9.75829 5.93826 8.94833
1 9.94467 6.35695 7.19948
1 10.9205 7.04858 7.98981
1 10.0261 6.18028 7.07515
1 10.2687 6.86124 5.59461
1 8.97411 6.02059 6.12401
1 9.56346 6.22393 4.76862
100
Atoms. Timestep: 1500
1 19.7233 -6.26495 5.02488
1 19.2334 -5.17772 4.34655
1 17.8147 -4.86098 4.1599
1 16.5057 -4.10041 4.52351
1 17.1795 -2.87715 4.91423
1 16.4029 -2.09276 6.20488
1 15.2463 -1.64157 5.19017
1 13.9146 -0.998404 4.77184
1 15.3333 -1.4559 4.9024
1 14.8302 -2.96895 4.57957
1 13.8623 -1.79221 3.57774
1 13.8674 -3.65964 3.39602
1 13.7353 -4.43115 2.10518
1 13.2549 -4.88005 0.822331
1 13.5849 -4.89783 2.1347
1 12.9672 -3.69047 2.54893
1 12.4621 -2.89306 3.71056
1 11.72 -3.56071 4.89448
1 10.3839 -3.62238 4.47063
1 10.367 -4.86158 4.62156
1 9.12581 -4.37361 4.24623
1 8.03784 -4.62716 5.18165
1 7.32261 -5.55895 3.89479
1 8.27018 -6.27695 5.22961
1 7.06099 -5.11381 5.26838
1 7.01468 -6.53849 6.39814
1 7.95187 -6.79469 5.32007
1 7.17775 -6.53378 6.57707
1 6.80339 -6.34406 8.02906
1 5.64287 -5.43176 8.45372
1 4.32893 -5.17307 7.67208
1 4.89582 -4.61884 8.90113
1 3.25105 -4.47567 8.89431
1 3.2566 -3.27942 10.1091
1 4.48479 -4.10264 9.6359
1 3.06666 -4.18888 10.3625
1 2.23098 -3.05876 11.1757
1 1.90235 -4.38584 11.7181
1 0.446962 -4.91953 11.838
1 2.06931 -4.88401 12.0754
1 2.96912 -6.04595 11.8912
1 2.206 -6.23297 13.1082
1 3.02121 -5.71684 11.9006
1 4.05551 -6.20178 10.5427
1 2.85444 -6.79653 10.7409
1 4.05859 -6.64409 10.2631
1 5.13368 -7.39894 9.23146
1 5.63356 -8.34953 9.73327
1 5.52125 -7.92765 11.4261
1 6.54719 -8.71351 12.4099
1 6.86766 -8.2069 10.9428
1 7.1349 -7.53484 12.0202
1 7.42267 -8.34185 13.1343
1 8.08734 -7.38377 13.8417
1 9.64264 -7.66747 13.492
1 10.5987 -8.14384 12.5847
1 10.3148 -9.10482 11.7331
1 10.3499 -7.85387 12.0821
1 10.0602 -6.64266 10.8906
1 10.4005 -5.21355 10.0239
1 11.1204 -5.4437 11.3633
1 11.6695 -4.36489 11.898
1 12.6181 -5.34159 12.6372
1 11.9468 -5.62623 11.2591
1 12.6993 -6.03582 10.2713
1 11.9168 -5.11605 9.48683
1 12.4838 -3.43286 9.05429
1 12.2841 -2.32183 7.88343
1 13.0153 -2.03727 9.24425
1 11.4569 -2.8159 9.20254
1 10.8751 -2.75123 10.5198
1 11.4438 -3.70821 9.29715
1 10.1001 -3.1141 10.1155
1 9.83275 -2.01997 11.1282
1 9.9401 -1.05809 11.8993
1 11.2419 -1.5254 11.6643
1 10.5294 -1.52817 10.506
1 9.46168 -0.996985 10.3047
1 7.98789 -0.938348 10.5063
1 9.04537 -0.516553 9.45839
1 10.4622 0.269707 9.46627
1 9.93429 0.0832836 7.89197
1 11.0723 0.912602 8.0353
1 9.87337 0.720175 6.98134
1 10.3836 1.97259 7.87251
1 10.5877 3.26622 6.95335
1 10.765 3.49708 5.37677
1 10.2143 3.61415 6.68482
1 11.0885 2.64741 5.83052
1 9.92164 3.38992 5.8499
1 9.74375 2.52507 6.99151
1 8.44846 3.27875 6.64882
1 7.25033 4.02117 6.70706
1 8.60732 4.70327 6.37203
1 8.64487 6.11205 6.98133
1 10.0967 6.53063 7.63066
1 10.2734 6.72383 5.96371
1 10.7046 5.66347 6.75702
1 10.1445 7.01184 7.06393
1 8.59562 7.00859 6.76147
100
Atoms. Timestep: 1750
1 19.8794 -3.29687 4.56156
1 20.7154 -2.0058 4.31633
1 20.5096 -1.79297 5.80663
1 19.1102 -1.81058 5.7751
1 18.3021 -2.14037 4.66927
1 17.4656 -2.61814 3.5035
1 16.3358 -1.76046 3.01354
1 17.2003 -2.00662 4.28398
1 15.8954 -2.60456 4.21155
1 14.6861 -1.37648 4.10379
1 14.9223 -0.201396 2.88658
1 14.6366 -1.66603 3.41235
1 15.6877 -2.65773 3.05113
1 15.0458 -3.62598 2.26903
1 14.1374 -2.70915 2.21417
1 12.9568 -3.588 1.8475
1 11.5872 -4.144 2.05794
1 10.1666 -3.92109 2.80124
1 10.153 -3.93345 4.21833
1 8.76728 -3.79389 4.7716
1 8.94909 -4.71312 5.77271
1 8.09747 -5.44128 6.61606
1 7.93315 -6.52836 5.31749
1 6.81424 -5.45839 5.40658
1 7.74539 -4.98103 6.35905
1 7.63235 -5.46518 8.09453
1 7.59089 -4.58314 7.17103
1 6.769 -5.57094 7.85625
1 5.10074 -5.01249 8.12376
1 4.50286 -6.37748 8.2029
1 5.36428 -6.99979 8.95694
1 4.34301 -6.66598 9.8018
1 5.71797 -5.82099 10.1478
1 4.88365 -4.74559 10.8171
1 4.60366 -3.32817 10.4567
1 3.99697 -2.03262 10.4417
1 2.60701 -1.96428 11.2413
1 1.99915 -3.02246 12.3318
1 3.4077 -3.10805 12.5833
1 3.82086 -4.64704 12.7197
1 4.4841 -5.86422 12.277
1 3.49113 -4.95005 11.6237
1 3.00587 -5.87967 10.6344
1 2.35665 -6.84561 10.11
1 1.54891 -7.94172 9.46618
1 2.68783 -7.61194 9.11106
1 4.14283 -7.74631 9.65151
1 4.42021 -7.63604 11.215
1 6.0334 -7.14683 11.202
1 7.32477 -8.47372 11.1221
1 8.0042 -7.5027 12.0316
1 7.22875 -8.48681 12.3365
1 8.09184 -7.733 13.41
1 8.03374 -8.58443 12.0818
1 8.88048 -9.52897 12.9228
1 9.84883 -8.54084 13.6429
1 10.2337 -8.12839 12.2071
1 11.9723 -8.38902 11.8927
1 11.5869 -8.16227 13.567
1 11.059 -6.97517 14.6019
1 11.2976 -6.35964 13.3567
1 11.7219 -6.85482 12.0027
1 13.0256 -6.12379 12.1903
1 13.2702 -4.65922 11.3813
1 13.3556 -3.39306 10.498
1 13.3234 -4.11816 11.7345
1 13.1213 -5.20757 10.7951
1 12.0309 -5.47454 11.2867
1 10.4563 -5.53627 11.4249
1 10.0582 -6.13475 10.2366
1 10.3024 -5.06879 9.22248
1 9.36438 -3.74128 8.86377
1 8.31395 -3.1344 9.61806
1 7.98003 -4.33814 10.0788
1 6.61239 -3.83514 9.43623
1 7.06661 -3.1157 8.27342
1 8.14422 -1.74387 8.58469
1 9.47821 -1.51658 9.48749
1 10.2257 -1.48874 8.13421
1 10.7961 -0.135434 7.87247
1 10.909 0.280636 6.54914
1 11.0875 0.0985851 8.07612
1 11.7848 1.22237 8.3757
1 12.3596 2.33839 9.10566
1 12.1521 1.14818 8.34586
1 12.2978 1.25806 6.71306
1 12.0837 2.53732 5.67354
1 10.7312 2.21248 6.14738
1 10.1095 3.45251 5.82715
1 8.38362 3.75521 5.58315
1 6.9061 4.54086 5.99986
1 6.54728 4.96023 4.59193
1 5.72066 5.26911 5.82313
1 5.90808 4.10373 4.93649
1 5.6468 5.82326 4.92272
1 6.34634 6.31974 6.15145
1 7.8903 6.47436 6.04977
1 8.90626 7.6217 5.78538
1 8.24756 6.93138 6.92653
1 9.65314 7.60885 7.03064
100
Atoms. Timestep: 2000
1 22.1185 0.2331 6.19488
1 20.7477 -0.358366 5.56716
1 20.3728 -1.27047 4.57774
1 21.6915 -1.86712 4.11032
1 20.7772 -0.816532 3.11609
1 19.5405 -0.677092 2.22559
1 18.7323 -1.72815 1.78141
1 18.1796 -1.33396 3.1541
1 18.0908 0.091714 3.45932
1 17.3393 -1.30583 2.92481
1 16.1907 -1.35708 1.8344
1 15.4838 -0.784101 2.96517
1 14.53 -1.8474 3.18798
1 12.9869 -2.54089 3.917
1 12.9253 -3.30107 2.56223
1 12.3068 -4.64788 2.88307
1 11.2163 -4.84956 3.82485
1 9.68304 -4.81204 4.32129
1 8.84528 -5.79249 4.97117
1 9.84472 -7.04807 4.47534
1 9.80493 -6.84698 6.05318
1 8.95379 -5.95496 7.12062
1 7.83493 -6.3018 8.28922
1 7.27926 -4.74937 7.72044
1 6.76282 -5.56639 6.58811
1 5.96093 -4.67247 6.24213
1 5.57649 -5.61867 7.43968
1 5.29201 -4.25609 7.86947
1 5.06067 -5.4896 8.46032
1 6.17334 -4.45804 8.76305
1 5.51651 -5.23897 9.89078
1 6.58322 -4.76617 10.5373
1 4.99077 -4.11272 10.703
1 4.57129 -2.78158 10.5676
1 4.90963 -3.88859 11.4264
1 4.49864 -3.665 12.7666
1 5.30362 -3.6986 13.9344
1 4.92534 -3.73554 12.3453
1 3.51785 -4.12308 11.9802
1 1.83307 -3.6752 11.67
1 1.34583 -4.13994 10.3889
1 0.842056 -5.5781 10.8958
1 2.3471 -5.47222 10.6053
1 3.16937 -6.22302 11.768
1 4.38962 -5.85615 11.002
1 4.10453 -5.5406 12.3906
1 4.32154 -6.58171 11.3964
1 4.3244 -7.0125 9.99168
1 4.59026 -7.9035 11.0291
1 5.86836 -8.33441 11.9679
1 5.93105 -9.53701 11.334
1 5.43194 -8.29885 11.3586
1 6.79994 -8.43675 12.0288
1 7.93893 -8.3852 10.9009
1 8.84291 -9.10851 12.2858
1 9.23623 -9.34493 13.8023
1 9.79696 -8.36937 12.9287
1 10.5099 -8.50353 14.0571
1 11.8748 -8.56832 13.2654
1 12.0125 -7.41308 11.9866
1 12.5181 -7.58167 13.4466
1 11.319 -7.08148 12.3871
1 12.6028 -7.18988 13.2487
1 12.6995 -6.46672 11.7581
1 12.3948 -5.08148 11.2883
1 11.8448 -3.59811 11.9522
1 10.747 -4.253 12.1138
1 10.1094 -4.87589 10.947
1 8.81928 -5.01308 10.5998
1 9.5551 -6.37061 10.4594
1 8.31309 -5.77072 10.4028
1 8.32448 -4.24693 10.7956
1 7.93503 -3.62922 9.4318
1 8.95135 -3.96243 8.07568
1 9.94525 -4.64012 8.57046
1 9.73415 -3.32002 7.59843
1 10.5689 -2.69061 7.03928
1 11.1684 -1.33424 6.4231
1 10.8372 -1.99721 7.51475
1 10.754 -3.25713 8.42019
1 10.9103 -1.75759 8.95116
1 10.6869 -0.260752 8.43935
1 11.7864 0.305339 7.4361
1 12.9388 0.590817 6.18287
1 11.8554 1.48846 6.33077
1 12.1289 2.77712 7.25127
1 11.0259 1.79334 6.88477
1 9.9407 3.00656 6.64353
1 8.80989 3.96614 5.94347
1 7.86563 4.58207 4.73025
1 9.40244 4.19346 5.36238
1 8.54047 4.97396 4.61941
1 8.06119 5.44793 3.13893
1 7.13235 5.40881 4.37719
1 7.12152 6.70216 3.55377
1 6.41721 7.03095 4.87472
1 6.54976 7.45226 6.65608
1 5.98473 6.7813 7.72652
1 5.84806 5.92146 6.15054
1 5.31332 5.907 4.86211
100
Atoms. Timestep: 2250
1 23.6581 -0.160688 4.1332
1 22.8123 -0.898299 3.14994
1 21.5438 -0.585794 4.1897
1 20.8594 -0.871549 2.80785
1 20.0335 -1.76701 1.69046
1 21.3575 -2.08785 1.37463
1 19.9438 -1.40488 1.6417
1 18.8836 -0.623422 2.33307
1 17.2889 -0.854516 2.54303
1 16.3638 -0.727956 1.11594
1 16.3008 -2.21307 1.76341
1 16.4249 -1.86532 3.29077
1 15.1312 -2.53497 3.87724
1 13.7974 -2.39729 4.7613
1 13.0993 -2.98868 6.12299
1 13.5081 -4.12916 6.467
1 12.4129 -4.56903 5.84081
1 11.2571 -4.65681 6.89881
1 10.6824 -6.07171 7.02072
1 9.47742 -6.57153 6.34279
1 8.39739 -7.72589 5.86102
1 8.73615 -6.31685 5.13226
1 7.41286 -6.2233 5.50456
1 7.68001 -7.50354 5.81487
1 7.35921 -8.45237 6.91512
1 7.94725 -7.10103 6.81832
1 6.88497 -6.4543 7.54453
1 5.4329 -6.86375 7.83251
1 5.45564 -5.81179 8.765
1 4.75337 -5.03371 9.97663
1 5.3805 -4.0173 10.7654
1 5.34204 -3.15349 11.9679
1 4.28744 -2.35781 12.4722
1 4.68237 -2.27984 13.922
1 5.49554 -2.92312 12.6005
1 4.13922 -3.55779 12.3965
1 3.57278 -4.92509 12.1847
1 2.83471 -4.15784 11.4008
1 4.14299 -3.6542 10.7998
1 2.58405 -3.88763 10.3832
1 3.66097 -3.98678 11.2903
1 2.23715 -4.02325 10.408
1 2.61218 -5.37984 10.5124
1 3.27129 -6.91643 10.3996
1 3.4619 -8.35455 11.2474
1 4.32932 -7.49543 12.3117
1 5.47585 -6.95362 11.2599
1 4.43568 -7.13977 12.2671
1 4.80569 -6.91246 10.6928
1 5.73705 -6.90079 11.7371
1 6.82664 -8.05288 11.1833
1 7.08712 -9.57458 11.6337
1 7.06767 -8.38998 12.4605
1 6.04328 -7.72017 13.3475
1 7.11218 -7.26826 14.275
1 8.254 -7.94166 14.2456
1 8.45015 -8.73098 12.9504
1 8.65376 -8.16303 11.6919
1 9.3742 -9.54644 12.2104
1 10.3941 -8.57658 11.6692
1 10.4635 -6.94923 11.5869
1 10.4801 -7.24486 13.1822
1 9.2777 -6.28503 13.2552
1 10.3981 -7.23449 12.8925
1 9.6043 -6.29404 13.7778
1 8.16058 -5.28189 13.2881
1 8.63222 -4.52456 12.2366
1 9.9831 -3.85603 11.5706
1 8.99195 -2.79999 11.4445
1 7.73298 -2.72925 10.7446
1 8.42821 -2.7839 9.44643
1 9.544 -3.77134 9.07374
1 10.5208 -4.70615 8.4695
1 10.913 -3.17598 8.29059
1 10.8208 -1.65827 7.97187
1 11.0239 -1.9092 6.42512
1 9.93648 -2.90907 6.02518
1 10.6549 -2.05022 7.07341
1 11.7559 -1.03374 7.41324
1 12.5425 -0.0964104 7.34286
1 12.0661 -1.23725 8.08386
1 11.9627 0.0557409 7.493
1 11.465 -0.654378 6.25928
1 11.1566 -0.160979 7.57482
1 10.0625 -0.954527 7.22935
1 10.5483 0.190775 6.36907
1 10.539 1.60751 6.71735
1 10.3173 2.07597 5.44104
1 9.58658 3.32049 4.8756
1 8.65812 4.12422 5.44578
1 9.87803 4.99018 4.84954
1 8.42868 4.60693 4.50762
1 8.18028 4.69144 5.9487
1 8.92613 5.44487 5.00047
1 7.28037 5.39944 4.74175
1 8.19583 6.56191 5.33772
1 7.32945 7.36449 4.21423
1 6.01725 8.49153 4.9043
1 5.48689 7.21383 4.24217
1 5.49374 8.29854 5.43059
100
Atoms. Timestep: 2500
1 21.6562 -3.61515 -0.672047
1 21.865 -2.79854 0.502804
1 21.2417 -1.97166 1.51893
1 20.9615 -0.550452 2.09701
1 20.6832 -0.639764 3.4385
1 20.5363 -0.975151 4.96443
1 19.8259 -1.60755 3.79822
1 19.7843 -3.06384 3.16995
1 18.6029 -1.98769 4.06412
1 17.2575 -2.00989 3.91261
1 16.4188 -2.71951 4.64827
1 15.0333 -2.2489 5.11962
1 14.6653 -3.50345 4.44328
1 13.3892 -4.09257 4.51719
1 13.9032 -4.27739 5.70094
1 15.2124 -3.77672 6.52602
1 14.1808 -3.75704 5.49774
1 14.4167 -4.92655 5.08012
1 12.9837 -5.49464 5.8034
1 11.6341 -5.0612 5.88753
1 10.298 -4.66689 6.63189
1 10.5546 -5.71924 5.77019
1 10.4118 -6.3282 4.60293
1 9.22592 -6.91166 5.61691
1 8.50623 -7.66558 6.87162
1 7.58212 -6.92512 7.46051
1 7.1086 -8.02779 8.44809
1 7.49529 -6.6648 9.11046
1 6.88648 -5.36326 8.48734
1 7.21537 -5.84948 9.89317
1 6.57578 -4.85716 10.8839
1 5.22352 -4.69072 11.6207
1 4.96167 -3.48514 12.4041
1 3.47222 -3.15622 12.533
1 3.27333 -3.39834 14.054
1 2.3435 -4.70115 14.1189
1 2.38583 -4.85472 12.6398
1 1.29908 -5.78791 12.2928
1 2.03581 -5.37187 11.0405
1 3.42204 -4.82956 10.9159
1 3.72976 -5.66234 9.52548
1 2.19465 -5.59176 9.60118
1 3.82046 -5.98703 9.96717
1 3.79669 -6.73476 8.69001
1 5.12146 -6.69211 9.19976
1 4.14608 -8.02976 9.59022
1 2.96796 -8.69691 9.03623
1 3.06961 -8.80217 10.7436
1 3.43329 -8.775 12.1606
1 3.17783 -7.65245 10.8776
1 3.66946 -7.6457 12.1846
1 5.07062 -6.86277 12.3674
1 5.392 -7.31945 13.8442
1 6.65318 -7.94997 14.266
1 6.13096 -7.76629 12.946
1 6.39448 -8.27578 11.47
1 5.91099 -6.97823 11.2022
1 7.32721 -6.87786 11.0232
1 8.0535 -7.8277 11.7344
1 8.4654 -8.38139 13.1928
1 7.39893 -7.21471 12.7601
1 8.04331 -5.68745 12.4916
1 7.43986 -4.2241 12.279
1 7.89437 -3.74857 13.6015
1 7.45806 -4.99754 12.9629
1 7.87496 -3.81008 12.1797
1 7.84722 -2.34547 11.7693
1 7.56529 -2.84665 12.9926
1 8.72514 -3.97217 12.7809
1 9.50335 -3.09668 12.4044
1 10.7411 -3.04607 11.5047
1 11.3716 -2.95759 9.98317
1 10.5476 -2.05416 9.11255
1 10.7076 -0.604891 8.74827
1 10.1623 -1.72097 8.03995
1 11.4407 -2.26768 7.51807
1 12.3778 -3.01162 6.67605
1 12.8119 -2.56942 8.19182
1 12.6612 -1.06576 8.0982
1 12.6448 0.193059 6.99467
1 11.782 1.27638 7.50255
1 12.0358 1.53133 6.0947
1 11.5213 0.117548 5.88732
1 11.1634 -0.257636 4.54009
1 9.85319 -0.0771944 5.433
1 8.48862 0.653712 5.37223
1 10.0673 0.0853982 5.47542
1 10.0495 0.799794 6.79066
1 9.80694 0.974148 5.417
1 10.125 2.40554 5.77244
1 8.69236 2.71364 6.0442
1 8.69599 4.18193 6.30401
1 8.18722 5.07479 5.29626
1 9.39733 5.35325 6.11929
1 9.53651 6.8401 5.17065
1 8.59261 7.24364 3.99822
1 7.46075 7.67834 3.0873
1 7.90039 8.59525 4.31879
1 8.25937 9.81357 5.26945
1 8.20445 8.61634 6.37286
100
Atoms. Timestep: 2750
1 21.3419 -3.0089 2.38762
1 20.4495 -2.16339 1.386
1 20.0073 -3.20642 2.42001
1 21.0131 -3.87481 2.89213
1 20.1743 -2.87406 3.61739
1 21.1555 -1.7286 3.53877
1 20.6157 -3.00482 4.46869
1 19.2404 -2.1771 4.96999
1 19.2777 -1.85177 6.63681
1 17.9236 -2.0373 7.40003
1 16.6706 -2.57709 6.70768
1 15.5522 -3.67842 6.37378
1 15.0227 -2.22828 6.25901
1 15.5224 -3.12271 5.00186
1 14.6585 -4.069 4.23347
1 13.2295 -4.31038 4.05562
1 13.9143 -5.21422 5.21257
1 12.9618 -5.73245 6.29815